1c.data (written by ASE) 

1536 	 atoms 
2  atom types
0.0      25.527285000000003  xlo xhi
0.0      25.527285000000003  ylo yhi
0.0      25.527285000000003  zlo zhi


Atoms 

1 1 0 25.457285000000002 0
2 2 24.987285000000004 0.52000000000000002 24.987285000000004
3 2 0.54000000000000004 0.52000000000000002 0.54000000000000004
4 1 3.1899999999999999 3.1299999999999999 0
5 2 2.6600000000000001 3.7100000000000004 24.987285000000004
6 2 3.73 3.7100000000000004 0.54000000000000004
7 1 3.1899999999999999 0 3.2599999999999998
8 2 3.73 24.987285000000004 2.6699999999999999
9 2 2.6600000000000001 0.54000000000000004 2.6699999999999999
10 1 0 3.1899999999999999 3.1299999999999999
11 2 0.54000000000000004 3.73 3.7100000000000004
12 2 24.987285000000004 2.6600000000000001 3.7100000000000004
13 1 1.5999999999999999 1.53 1.5999999999999999
14 2 1.0600000000000001 2.1200000000000001 2.1299999999999999
15 2 2.1299999999999999 2.1200000000000001 1.0600000000000001
16 1 4.7199999999999998 4.79 1.5999999999999999
17 2 5.3099999999999996 5.3200000000000003 1.0600000000000001
18 2 5.3099999999999996 4.25 2.1299999999999999
19 1 4.79 1.5999999999999999 4.8500000000000005
20 2 4.25 1.0600000000000001 4.2699999999999996
21 2 5.3200000000000003 2.1299999999999999 4.2699999999999996
22 1 1.5999999999999999 4.7199999999999998 4.79
23 2 2.1299999999999999 5.3099999999999996 4.25
24 2 1.0600000000000001 5.3099999999999996 5.3200000000000003
25 1 6.3799999999999999 0 0.070000000000000007
26 2 5.8499999999999996 0.54000000000000004 25.007285000000003
27 2 6.9200000000000008 24.987285000000004 25.007285000000003
28 1 9.5700000000000003 3.2599999999999998 0
29 2 9.0399999999999991 2.6699999999999999 0.54000000000000004
30 2 10.110001 2.6699999999999999 24.987285000000004
31 1 9.5100000000000016 0 3.1899999999999999
32 2 10.089999000000001 24.987285000000004 2.6600000000000001
33 2 10.089999000000001 0.54000000000000004 3.73
34 1 6.3200000000000003 3.1899999999999999 3.1899999999999999
35 2 6.9000000000000012 2.6600000000000001 2.6600000000000001
36 2 6.9000000000000012 3.73 3.73
37 1 7.9800000000000004 1.6599999999999999 1.5999999999999999
38 2 8.5099999999999998 1.0700000000000001 2.1299999999999999
39 2 7.4400000000000004 1.0700000000000001 1.0600000000000001
40 1 11.17 4.79 1.6599999999999999
41 2 11.699999999999999 5.3200000000000003 1.0700000000000001
42 2 10.629999 4.25 1.0700000000000001
43 1 11.17 1.53 4.79
44 2 11.699999999999999 2.1200000000000001 4.25
45 2 10.629999 2.1200000000000001 5.3200000000000003
46 1 7.9800000000000004 4.79 4.7199999999999998
47 2 7.4400000000000004 5.3200000000000003 5.3099999999999996
48 2 8.5099999999999998 4.25 5.3099999999999996
49 1 12.76 0 25.457285000000002
50 2 12.23 24.987285000000004 0.52000000000000002
51 2 13.300000000000002 0.54000000000000004 0.52000000000000002
52 1 15.950001 3.1899999999999999 25.457285000000002
53 2 15.42 2.6600000000000001 0.52000000000000002
54 2 16.489999999999998 3.73 0.52000000000000002
55 1 15.889999000000001 0 3.1899999999999999
56 2 16.48 0.54000000000000004 3.73
57 2 16.48 24.987285000000004 2.6600000000000001
58 1 12.76 3.1299999999999999 3.1899999999999999
59 2 13.300000000000002 3.7100000000000004 3.73
60 2 12.23 3.7100000000000004 2.6600000000000001
61 1 14.360000000000001 1.5999999999999999 1.53
62 2 13.820000000000002 2.1299999999999999 2.1200000000000001
63 2 14.889999 1.0600000000000001 2.1200000000000001
64 1 17.48 4.79 1.5999999999999999
65 2 18.07 4.25 2.1299999999999999
66 2 18.07 5.3200000000000003 1.0600000000000001
67 1 17.549999 1.5999999999999999 4.7199999999999998
68 2 17.010000000000002 2.1299999999999999 5.3099999999999996
69 2 18.09 1.0600000000000001 5.3099999999999996
70 1 14.360000000000001 4.7199999999999998 4.79
71 2 13.820000000000002 5.3099999999999996 5.3200000000000003
72 2 14.889999 5.3099999999999996 4.25
73 1 19.209999 0 0
74 2 18.619999 0.54000000000000004 24.987285000000004
75 2 18.619999 24.987285000000004 0.54000000000000004
76 1 22.27 3.1899999999999999 0
77 2 22.860001 3.73 0.54000000000000004
78 2 22.860001 2.6600000000000001 24.987285000000004
79 1 22.34 0 3.2599999999999998
80 2 22.869999 24.987285000000004 2.6699999999999999
81 2 21.800001000000005 0.54000000000000004 2.6699999999999999
82 1 19.149999999999999 3.2599999999999998 3.1899999999999999
83 2 18.609998999999998 2.6699999999999999 3.73
84 2 19.68 2.6699999999999999 2.6600000000000001
85 1 20.739998 1.5999999999999999 1.6599999999999999
86 2 21.280000999999999 2.1299999999999999 1.0700000000000001
87 2 20.209999 1.0600000000000001 1.0700000000000001
88 1 23.929998000000001 4.79 1.53
89 2 23.399999999999999 5.3200000000000003 2.1200000000000001
90 2 24.470001 4.25 2.1200000000000001
91 1 23.929998000000001 1.6599999999999999 4.79
92 2 23.399999999999999 1.0700000000000001 4.25
93 2 24.470001 1.0700000000000001 5.3200000000000003
94 1 20.739998 4.8500000000000005 4.79
95 2 20.209999 4.2699999999999996 4.25
96 2 21.280000999999999 4.2699999999999996 5.3200000000000003
97 1 0.070000000000000007 6.3799999999999999 0
98 2 25.007285000000003 6.9200000000000008 24.987285000000004
99 2 25.007285000000003 5.8499999999999996 0.54000000000000004
100 1 3.1299999999999999 9.5700000000000003 0
101 2 3.7100000000000004 9.0399999999999991 24.987285000000004
102 2 3.7100000000000004 10.110001 0.54000000000000004
103 1 3.1899999999999999 6.3799999999999999 3.2599999999999998
104 2 3.73 5.8499999999999996 2.6699999999999999
105 2 2.6600000000000001 6.9200000000000008 2.6699999999999999
106 1 0 9.6399989999999995 3.1899999999999999
107 2 0.54000000000000004 9.0499989999999997 2.6600000000000001
108 2 24.987285000000004 9.0499989999999997 3.73
109 1 1.5999999999999999 7.9800000000000004 1.6599999999999999
110 2 1.0600000000000001 7.4400000000000004 1.0700000000000001
111 2 2.1299999999999999 8.5099999999999998 1.0700000000000001
112 1 4.79 11.1 1.5999999999999999
113 2 4.25 11.690001000000001 2.1299999999999999
114 2 5.3200000000000003 11.690001000000001 1.0600000000000001
115 1 4.79 8.0399999999999991 4.79
116 2 4.25 7.46 4.25
117 2 5.3200000000000003 7.46 5.3200000000000003
118 1 1.6599999999999999 11.17 4.79
119 2 1.0700000000000001 11.699999999999999 5.3200000000000003
120 2 1.0700000000000001 10.629999 4.25
121 1 6.3200000000000003 6.3799999999999999 0
122 2 6.9000000000000012 5.8499999999999996 24.987285000000004
123 2 6.9000000000000012 6.9200000000000008 0.54000000000000004
124 1 9.5700000000000003 9.5700000000000003 25.457285000000002
125 2 10.110001 10.110001 0.52000000000000002
126 2 9.0399999999999991 9.0399999999999991 0.52000000000000002
127 1 9.5700000000000003 6.4500000000000002 3.1899999999999999
128 2 10.110001 5.8600000000000003 2.6600000000000001
129 2 9.0399999999999991 5.8600000000000003 3.73
130 1 6.4500000000000002 9.5700000000000003 3.1899999999999999
131 2 5.8600000000000003 9.0399999999999991 3.73
132 2 5.8600000000000003 10.110001 2.6600000000000001
133 1 7.9800000000000004 7.9800000000000004 1.53
134 2 8.5099999999999998 7.4400000000000004 2.1200000000000001
135 2 7.4400000000000004 8.5099999999999998 2.1200000000000001
136 1 11.17 11.17 1.53
137 2 10.629999 11.699999999999999 2.1200000000000001
138 2 11.699999999999999 10.629999 2.1200000000000001
139 1 11.23 7.9800000000000004 4.79
140 2 10.650001000000001 8.5099999999999998 5.3200000000000003
141 2 10.650001000000001 7.4400000000000004 4.25
142 1 8.0399999999999991 11.17 4.79
143 2 7.46 10.629999 4.25
144 2 7.46 11.699999999999999 5.3200000000000003
145 1 12.76 6.3200000000000003 0
146 2 12.23 6.9000000000000012 24.987285000000004
147 2 13.300000000000002 6.9000000000000012 0.54000000000000004
148 1 15.950001 9.5700000000000003 0.070000000000000007
149 2 16.489999999999998 9.0399999999999991 25.007285000000003
150 2 15.42 10.110001 25.007285000000003
151 1 15.950001 6.3799999999999999 3.2599999999999998
152 2 16.489999999999998 5.8499999999999996 2.6699999999999999
153 2 15.42 6.9200000000000008 2.6699999999999999
154 1 12.76 9.5700000000000003 3.1299999999999999
155 2 13.300000000000002 10.110001 3.7100000000000004
156 2 12.23 9.0399999999999991 3.7100000000000004
157 1 14.360000000000001 7.9100000000000001 1.5999999999999999
158 2 13.820000000000002 8.5 2.1299999999999999
159 2 14.889999 8.5 1.0600000000000001
160 1 17.619999 11.17 1.5999999999999999
161 2 17.029999 10.629999 1.0600000000000001
162 2 17.029999 11.699999999999999 2.1299999999999999
163 1 17.549999 7.9800000000000004 4.8500000000000005
164 2 18.09 8.5099999999999998 4.2699999999999996
165 2 17.010000000000002 7.4400000000000004 4.2699999999999996
166 1 14.290000000000001 11.17 4.79
167 2 14.880000000000001 10.629999 5.3200000000000003
168 2 14.880000000000001 11.699999999999999 4.25
169 1 19.149999999999999 6.3799999999999999 0.070000000000000007
170 2 18.609998999999998 6.9200000000000008 25.007285000000003
171 2 19.68 5.8499999999999996 25.007285000000003
172 1 22.27 9.5700000000000003 0
173 2 22.860001 9.0399999999999991 24.987285000000004
174 2 22.860001 10.110001 0.54000000000000004
175 1 22.399999999999999 6.3799999999999999 3.1899999999999999
176 2 21.82 6.9200000000000008 2.6600000000000001
177 2 21.82 5.8499999999999996 3.73
178 1 19.149999999999999 9.5700000000000003 3.2599999999999998
179 2 19.68 9.0399999999999991 2.6699999999999999
180 2 18.609998999999998 10.110001 2.6699999999999999
181 1 20.739998 7.9800000000000004 1.6599999999999999
182 2 20.209999 7.4400000000000004 1.0700000000000001
183 2 21.280000999999999 8.5099999999999998 1.0700000000000001
184 1 23.929998000000001 11.17 1.53
185 2 24.470001 10.629999 2.1200000000000001
186 2 23.399999999999999 11.699999999999999 2.1200000000000001
187 1 24 7.9800000000000004 4.79
188 2 23.41 7.4400000000000004 4.25
189 2 23.41 8.5099999999999998 5.3200000000000003
190 1 20.739998 11.17 4.8500000000000005
191 2 20.209999 10.629999 4.2699999999999996
192 2 21.280000999999999 11.699999999999999 4.2699999999999996
193 1 0.070000000000000007 12.76 0
194 2 25.007285000000003 12.23 0.54000000000000004
195 2 25.007285000000003 13.300000000000002 24.987285000000004
196 1 3.1899999999999999 15.950001 25.457285000000002
197 2 2.6600000000000001 15.42 0.52000000000000002
198 2 3.73 16.489999999999998 0.52000000000000002
199 1 3.2599999999999998 12.76 3.1899999999999999
200 2 2.6699999999999999 12.23 3.73
201 2 2.6699999999999999 13.300000000000002 2.6600000000000001
202 1 0 15.889999000000001 3.1899999999999999
203 2 24.987285000000004 16.48 2.6600000000000001
204 2 0.54000000000000004 16.48 3.73
205 1 1.6599999999999999 14.360000000000001 1.5999999999999999
206 2 1.0700000000000001 14.889999 2.1299999999999999
207 2 1.0700000000000001 13.820000000000002 1.0600000000000001
208 1 4.79 17.549999 1.53
209 2 4.25 18.09 2.1200000000000001
210 2 5.3200000000000003 17.010000000000002 2.1200000000000001
211 1 4.79 14.42 4.79
212 2 4.25 13.839999000000001 4.25
213 2 5.3200000000000003 13.839999000000001 5.3200000000000003
214 1 1.5999999999999999 17.549999 4.7199999999999998
215 2 1.0600000000000001 18.09 5.3099999999999996
216 2 2.1299999999999999 17.010000000000002 5.3099999999999996
217 1 6.3799999999999999 12.699999999999999 0
218 2 6.9200000000000008 13.279999999999999 0.54000000000000004
219 2 5.8499999999999996 13.279999999999999 24.987285000000004
220 1 9.5700000000000003 15.950001 0.070000000000000007
221 2 10.110001 15.42 25.007285000000003
222 2 9.0399999999999991 16.489999999999998 25.007285000000003
223 1 9.5700000000000003 12.76 3.1299999999999999
224 2 9.0399999999999991 12.23 3.7100000000000004
225 2 10.110001 13.300000000000002 3.7100000000000004
226 1 6.3799999999999999 16.02 3.1899999999999999
227 2 5.8499999999999996 15.43 3.73
228 2 6.9200000000000008 15.43 2.6600000000000001
229 1 7.9100000000000001 14.360000000000001 1.5999999999999999
230 2 8.5 13.820000000000002 2.1299999999999999
231 2 8.5 14.889999 1.0600000000000001
232 1 11.17 17.549999 1.6599999999999999
233 2 10.629999 17.010000000000002 1.0700000000000001
234 2 11.699999999999999 18.09 1.0700000000000001
235 1 11.17 14.360000000000001 4.7199999999999998
236 2 10.629999 14.889999 5.3099999999999996
237 2 11.699999999999999 13.820000000000002 5.3099999999999996
238 1 8.0399999999999991 17.549999 4.79
239 2 7.46 18.09 5.3200000000000003
240 2 7.46 17.010000000000002 4.25
241 1 12.83 12.76 0
242 2 12.24 13.300000000000002 24.987285000000004
243 2 12.24 12.23 0.54000000000000004
244 1 16.02 15.950001 0
245 2 15.43 15.42 0.54000000000000004
246 2 15.43 16.489999999999998 24.987285000000004
247 1 15.950001 12.699999999999999 3.1899999999999999
248 2 16.489999999999998 13.279999999999999 3.73
249 2 15.42 13.279999999999999 2.6600000000000001
250 1 12.83 15.950001 3.1899999999999999
251 2 12.24 16.489999999999998 2.6600000000000001
252 2 12.24 15.42 3.73
253 1 14.42 14.360000000000001 1.5999999999999999
254 2 13.839999000000001 13.820000000000002 1.0600000000000001
255 2 13.839999000000001 14.889999 2.1299999999999999
256 1 17.619999 17.549999 1.5999999999999999
257 2 17.029999 17.010000000000002 1.0600000000000001
258 2 17.029999 18.09 2.1299999999999999
259 1 17.549999 14.290000000000001 4.79
260 2 17.010000000000002 14.880000000000001 5.3200000000000003
261 2 18.09 14.880000000000001 4.25
262 1 14.360000000000001 17.619999 4.79
263 2 14.889999 17.029999 5.3200000000000003
264 2 13.820000000000002 17.029999 4.25
265 1 19.209999 12.76 0
266 2 18.619999 13.300000000000002 24.987285000000004
267 2 18.619999 12.23 0.54000000000000004
268 1 22.34 16.02 0
269 2 21.800001000000005 15.43 0.54000000000000004
270 2 22.869999 15.43 24.987285000000004
271 1 22.34 12.699999999999999 3.1899999999999999
272 2 21.800001000000005 13.279999999999999 2.6600000000000001
273 2 22.869999 13.279999999999999 3.73
274 1 19.149999999999999 15.889999000000001 3.1899999999999999
275 2 19.68 16.48 3.73
276 2 18.609998999999998 16.48 2.6600000000000001
277 1 20.810001 14.360000000000001 1.5999999999999999
278 2 20.220001 14.889999 2.1299999999999999
279 2 20.220001 13.820000000000002 1.0600000000000001
280 1 24 17.549999 1.5999999999999999
281 2 23.41 17.010000000000002 1.0600000000000001
282 2 23.41 18.09 2.1299999999999999
283 1 23.929998000000001 14.290000000000001 4.79
284 2 23.399999999999999 14.880000000000001 5.3200000000000003
285 2 24.470001 14.880000000000001 4.25
286 1 20.739998 17.48 4.79
287 2 21.280000999999999 18.07 4.25
288 2 20.209999 18.07 5.3200000000000003
289 1 0 19.149999999999999 25.457285000000002
290 2 0.54000000000000004 19.68 0.52000000000000002
291 2 24.987285000000004 18.609998999999998 0.52000000000000002
292 1 3.1899999999999999 22.34 0.070000000000000007
293 2 2.6600000000000001 22.869999 25.007285000000003
294 2 3.73 21.800001000000005 25.007285000000003
295 1 3.2599999999999998 19.149999999999999 3.1899999999999999
296 2 2.6699999999999999 18.609998999999998 3.73
297 2 2.6699999999999999 19.68 2.6600000000000001
298 1 0 22.27 3.1899999999999999
299 2 0.54000000000000004 22.860001 3.73
300 2 24.987285000000004 22.860001 2.6600000000000001
301 1 1.5999999999999999 20.68 1.5999999999999999
302 2 1.0600000000000001 21.259998 2.1299999999999999
303 2 2.1299999999999999 21.259998 1.0600000000000001
304 1 4.79 23.929998000000001 1.6599999999999999
305 2 4.25 23.399999999999999 1.0700000000000001
306 2 5.3200000000000003 24.470001 1.0700000000000001
307 1 4.8500000000000005 20.739998 4.79
308 2 4.2699999999999996 21.280000999999999 5.3200000000000003
309 2 4.2699999999999996 20.209999 4.25
310 1 1.5999999999999999 23.870000999999998 4.79
311 2 1.0600000000000001 24.449998999999998 5.3200000000000003
312 2 2.1299999999999999 24.449998999999998 4.25
313 1 6.3799999999999999 19.149999999999999 25.457285000000002
314 2 6.9200000000000008 19.68 0.52000000000000002
315 2 5.8499999999999996 18.609998999999998 0.52000000000000002
316 1 9.5700000000000003 22.399999999999999 0
317 2 10.110001 21.82 24.987285000000004
318 2 9.0399999999999991 21.82 0.54000000000000004
319 1 9.5700000000000003 19.209999 3.1899999999999999
320 2 10.110001 18.619999 2.6600000000000001
321 2 9.0399999999999991 18.619999 3.73
322 1 6.4500000000000002 22.34 3.1899999999999999
323 2 5.8600000000000003 21.800001000000005 3.73
324 2 5.8600000000000003 22.869999 2.6600000000000001
325 1 7.9800000000000004 20.739998 1.53
326 2 7.4400000000000004 21.280000999999999 2.1200000000000001
327 2 8.5099999999999998 20.209999 2.1200000000000001
328 1 11.17 24 1.5999999999999999
329 2 11.699999999999999 23.41 2.1299999999999999
330 2 10.629999 23.41 1.0600000000000001
331 1 11.17 20.810001 4.79
332 2 11.699999999999999 20.220001 5.3200000000000003
333 2 10.629999 20.220001 4.25
334 1 7.9800000000000004 23.929998000000001 4.8500000000000005
335 2 7.4400000000000004 23.399999999999999 4.2699999999999996
336 2 8.5099999999999998 24.470001 4.2699999999999996
337 1 12.76 19.149999999999999 0.070000000000000007
338 2 12.23 19.68 25.007285000000003
339 2 13.300000000000002 18.609998999999998 25.007285000000003
340 1 16.02 22.34 0
341 2 15.43 21.800001000000005 0.54000000000000004
342 2 15.43 22.869999 24.987285000000004
343 1 16.02 19.149999999999999 3.1899999999999999
344 2 15.43 19.68 2.6600000000000001
345 2 15.43 18.609998999999998 3.73
346 1 12.76 22.34 3.1299999999999999
347 2 12.23 21.800001000000005 3.7100000000000004
348 2 13.300000000000002 22.869999 3.7100000000000004
349 1 14.42 20.739998 1.5999999999999999
350 2 13.839999000000001 21.280000999999999 2.1299999999999999
351 2 13.839999000000001 20.209999 1.0600000000000001
352 1 17.549999 24 1.5999999999999999
353 2 18.09 23.41 2.1299999999999999
354 2 17.010000000000002 23.41 1.0600000000000001
355 1 17.619999 20.739998 4.79
356 2 17.029999 21.280000999999999 5.3200000000000003
357 2 17.029999 20.209999 4.25
358 1 14.360000000000001 23.870000999999998 4.79
359 2 14.889999 24.449998999999998 4.25
360 2 13.820000000000002 24.449998999999998 5.3200000000000003
361 1 19.209999 19.149999999999999 0
362 2 18.619999 19.68 24.987285000000004
363 2 18.619999 18.609998999999998 0.54000000000000004
364 1 22.34 22.399999999999999 0
365 2 22.869999 21.82 24.987285000000004
366 2 21.800001000000005 21.82 0.54000000000000004
367 1 22.34 19.079999999999998 3.1899999999999999
368 2 21.800001000000005 19.670000000000002 2.6600000000000001
369 2 22.869999 19.670000000000002 3.73
370 1 19.149999999999999 22.34 3.1299999999999999
371 2 18.609998999999998 21.800001000000005 3.7100000000000004
372 2 19.68 22.869999 3.7100000000000004
373 1 20.810001 20.739998 1.5999999999999999
374 2 20.220001 21.280000999999999 2.1299999999999999
375 2 20.220001 20.209999 1.0600000000000001
376 1 23.929998000000001 23.929998000000001 1.6599999999999999
377 2 23.399999999999999 23.399999999999999 1.0700000000000001
378 2 24.470001 24.470001 1.0700000000000001
379 1 23.870000999999998 20.739998 4.79
380 2 24.449998999999998 21.280000999999999 4.25
381 2 24.449998999999998 20.209999 5.3200000000000003
382 1 20.68 23.929998000000001 4.79
383 2 21.259998 23.399999999999999 5.3200000000000003
384 2 21.259998 24.470001 4.25
385 1 0 0 6.3200000000000003
386 2 0.54000000000000004 0.54000000000000004 6.9000000000000012
387 2 24.987285000000004 24.987285000000004 6.9000000000000012
388 1 3.1899999999999999 3.1899999999999999 6.4500000000000002
389 2 2.6600000000000001 3.73 5.8600000000000003
390 2 3.73 2.6600000000000001 5.8600000000000003
391 1 3.1299999999999999 0 9.5700000000000003
392 2 3.7100000000000004 0.54000000000000004 10.110001
393 2 3.7100000000000004 24.987285000000004 9.0399999999999991
394 1 0 3.1899999999999999 9.6399989999999995
395 2 0.54000000000000004 2.6600000000000001 9.0499989999999997
396 2 24.987285000000004 3.73 9.0499989999999997
397 1 1.53 1.5999999999999999 7.9800000000000004
398 2 2.1200000000000001 2.1299999999999999 7.4400000000000004
399 2 2.1200000000000001 1.0600000000000001 8.5099999999999998
400 1 4.8500000000000005 4.79 7.9800000000000004
401 2 4.2699999999999996 4.25 7.4400000000000004
402 2 4.2699999999999996 5.3200000000000003 8.5099999999999998
403 1 4.79 1.53 11.17
404 2 5.3200000000000003 2.1200000000000001 10.629999
405 2 4.25 2.1200000000000001 11.699999999999999
406 1 1.6599999999999999 4.79 11.17
407 2 1.0700000000000001 4.25 10.629999
408 2 1.0700000000000001 5.3200000000000003 11.699999999999999
409 1 6.3799999999999999 0 6.4500000000000002
410 2 5.8499999999999996 0.54000000000000004 5.8600000000000003
411 2 6.9200000000000008 24.987285000000004 5.8600000000000003
412 1 9.5700000000000003 3.1899999999999999 6.3200000000000003
413 2 9.0399999999999991 2.6600000000000001 6.9000000000000012
414 2 10.110001 3.73 6.9000000000000012
415 1 9.5700000000000003 0 9.6399989999999995
416 2 9.0399999999999991 0.54000000000000004 9.0499989999999997
417 2 10.110001 24.987285000000004 9.0499989999999997
418 1 6.3799999999999999 3.1299999999999999 9.5700000000000003
419 2 6.9200000000000008 3.7100000000000004 10.110001
420 2 5.8499999999999996 3.7100000000000004 9.0399999999999991
421 1 8.0399999999999991 1.5999999999999999 7.9800000000000004
422 2 7.46 1.0600000000000001 7.4400000000000004
423 2 7.46 2.1299999999999999 8.5099999999999998
424 1 11.1 4.79 7.9800000000000004
425 2 11.690001000000001 5.3200000000000003 7.4400000000000004
426 2 11.690001000000001 4.25 8.5099999999999998
427 1 11.23 1.5999999999999999 11.17
428 2 10.650001000000001 2.1299999999999999 11.699999999999999
429 2 10.650001000000001 1.0600000000000001 10.629999
430 1 7.9800000000000004 4.79 11.1
431 2 7.4400000000000004 5.3200000000000003 11.690001000000001
432 2 8.5099999999999998 4.25 11.690001000000001
433 1 12.83 0 6.3799999999999999
434 2 12.24 0.54000000000000004 5.8499999999999996
435 2 12.24 24.987285000000004 6.9200000000000008
436 1 16.02 3.1899999999999999 6.3799999999999999
437 2 15.43 3.73 5.8499999999999996
438 2 15.43 2.6600000000000001 6.9200000000000008
439 1 15.950001 0 9.5100000000000016
440 2 16.489999999999998 0.54000000000000004 10.089999000000001
441 2 15.42 24.987285000000004 10.089999000000001
442 1 12.76 3.2599999999999998 9.5700000000000003
443 2 13.300000000000002 2.6699999999999999 9.0399999999999991
444 2 12.23 2.6699999999999999 10.110001
445 1 14.360000000000001 1.6599999999999999 7.9800000000000004
446 2 13.820000000000002 1.0700000000000001 7.4400000000000004
447 2 14.889999 1.0700000000000001 8.5099999999999998
448 1 17.549999 4.79 8.0399999999999991
449 2 18.09 5.3200000000000003 7.46
450 2 17.010000000000002 4.25 7.46
451 1 17.549999 1.5999999999999999 11.1
452 2 17.010000000000002 2.1299999999999999 11.690001000000001
453 2 18.09 1.0600000000000001 11.690001000000001
454 1 14.360000000000001 4.79 11.23
455 2 14.889999 5.3200000000000003 10.650001000000001
456 2 13.820000000000002 4.25 10.650001000000001
457 1 19.079999999999998 0 6.3799999999999999
458 2 19.670000000000002 0.54000000000000004 6.9200000000000008
459 2 19.670000000000002 24.987285000000004 5.8499999999999996
460 1 22.34 3.2599999999999998 6.3799999999999999
461 2 21.800001000000005 2.6699999999999999 6.9200000000000008
462 2 22.869999 2.6699999999999999 5.8499999999999996
463 1 22.34 0 9.5100000000000016
464 2 21.800001000000005 24.987285000000004 10.089999000000001
465 2 22.869999 0.54000000000000004 10.089999000000001
466 1 19.209999 3.1899999999999999 9.5700000000000003
467 2 18.619999 2.6600000000000001 10.110001
468 2 18.619999 3.73 9.0399999999999991
469 1 20.739998 1.5999999999999999 7.9100000000000001
470 2 21.280000999999999 1.0600000000000001 8.5
471 2 20.209999 2.1299999999999999 8.5
472 1 23.929998000000001 4.79 8.0399999999999991
473 2 23.399999999999999 4.25 7.46
474 2 24.470001 5.3200000000000003 7.46
475 1 23.929998000000001 1.53 11.17
476 2 23.399999999999999 2.1200000000000001 11.699999999999999
477 2 24.470001 2.1200000000000001 10.629999
478 1 20.739998 4.79 11.23
479 2 21.280000999999999 5.3200000000000003 10.650001000000001
480 2 20.209999 4.25 10.650001000000001
481 1 0 6.3200000000000003 6.3799999999999999
482 2 0.54000000000000004 6.9000000000000012 6.9200000000000008
483 2 24.987285000000004 6.9000000000000012 5.8499999999999996
484 1 3.1899999999999999 9.5700000000000003 6.4500000000000002
485 2 3.73 9.0399999999999991 5.8600000000000003
486 2 2.6600000000000001 10.110001 5.8600000000000003
487 1 3.1899999999999999 6.3799999999999999 9.5100000000000016
488 2 3.73 6.9200000000000008 10.089999000000001
489 2 2.6600000000000001 5.8499999999999996 10.089999000000001
490 1 25.457285000000002 9.5700000000000003 9.5700000000000003
491 2 0.52000000000000002 10.110001 10.110001
492 2 0.52000000000000002 9.0399999999999991 9.0399999999999991
493 1 1.53 7.9800000000000004 7.9800000000000004
494 2 2.1200000000000001 8.5099999999999998 7.4400000000000004
495 2 2.1200000000000001 7.4400000000000004 8.5099999999999998
496 1 4.79 11.23 7.9800000000000004
497 2 5.3200000000000003 10.650001000000001 8.5099999999999998
498 2 4.25 10.650001000000001 7.4400000000000004
499 1 4.79 7.9800000000000004 11.1
500 2 5.3200000000000003 7.4400000000000004 11.690001000000001
501 2 4.25 8.5099999999999998 11.690001000000001
502 1 1.5999999999999999 11.1 11.17
503 2 1.0600000000000001 11.690001000000001 11.699999999999999
504 2 2.1299999999999999 11.690001000000001 10.629999
505 1 6.3799999999999999 6.3799999999999999 6.3200000000000003
506 2 6.9200000000000008 6.9200000000000008 6.9000000000000012
507 2 5.8499999999999996 5.8499999999999996 6.9000000000000012
508 1 9.6399989999999995 9.5700000000000003 6.3799999999999999
509 2 9.0499989999999997 10.110001 5.8499999999999996
510 2 9.0499989999999997 9.0399999999999991 6.9200000000000008
511 1 9.5700000000000003 6.4500000000000002 9.5700000000000003
512 2 9.0399999999999991 5.8600000000000003 10.110001
513 2 10.110001 5.8600000000000003 9.0399999999999991
514 1 6.3799999999999999 9.5700000000000003 9.5100000000000016
515 2 5.8499999999999996 9.0399999999999991 10.089999000000001
516 2 6.9200000000000008 10.110001 10.089999000000001
517 1 7.9800000000000004 7.9800000000000004 7.9100000000000001
518 2 7.4400000000000004 8.5099999999999998 8.5
519 2 8.5099999999999998 7.4400000000000004 8.5
520 1 11.17 11.23 7.9800000000000004
521 2 10.629999 10.650001000000001 7.4400000000000004
522 2 11.699999999999999 10.650001000000001 8.5099999999999998
523 1 11.17 8.0399999999999991 11.17
524 2 10.629999 7.46 10.629999
525 2 11.699999999999999 7.46 11.699999999999999
526 1 7.9800000000000004 11.17 11.1
527 2 8.5099999999999998 10.629999 11.690001000000001
528 2 7.4400000000000004 11.699999999999999 11.690001000000001
529 1 12.76 6.3200000000000003 6.3799999999999999
530 2 12.23 6.9000000000000012 5.8499999999999996
531 2 13.300000000000002 6.9000000000000012 6.9200000000000008
532 1 15.889999000000001 9.5700000000000003 6.3799999999999999
533 2 16.48 9.0399999999999991 5.8499999999999996
534 2 16.48 10.110001 6.9200000000000008
535 1 15.889999000000001 6.3799999999999999 9.5700000000000003
536 2 16.48 5.8499999999999996 9.0399999999999991
537 2 16.48 6.9200000000000008 10.110001
538 1 12.76 9.6399989999999995 9.5700000000000003
539 2 13.300000000000002 9.0499989999999997 9.0399999999999991
540 2 12.23 9.0499989999999997 10.110001
541 1 14.290000000000001 7.9800000000000004 7.9800000000000004
542 2 14.880000000000001 7.4400000000000004 8.5099999999999998
543 2 14.880000000000001 8.5099999999999998 7.4400000000000004
544 1 17.549999 11.1 7.9800000000000004
545 2 18.09 11.690001000000001 7.4400000000000004
546 2 17.010000000000002 11.690001000000001 8.5099999999999998
547 1 17.549999 7.9100000000000001 11.17
548 2 18.09 8.5 10.629999
549 2 17.010000000000002 8.5 11.699999999999999
550 1 14.42 11.17 11.17
551 2 13.839999000000001 11.699999999999999 11.699999999999999
552 2 13.839999000000001 10.629999 10.629999
553 1 19.149999999999999 6.3799999999999999 6.4500000000000002
554 2 18.609998999999998 6.9200000000000008 5.8600000000000003
555 2 19.68 5.8499999999999996 5.8600000000000003
556 1 22.34 9.5100000000000016 6.3799999999999999
557 2 21.800001000000005 10.089999000000001 5.8499999999999996
558 2 22.869999 10.089999000000001 6.9200000000000008
559 1 22.34 6.3799999999999999 9.6399989999999995
560 2 21.800001000000005 6.9200000000000008 9.0499989999999997
561 2 22.869999 5.8499999999999996 9.0499989999999997
562 1 19.149999999999999 9.5700000000000003 9.6399989999999995
563 2 18.609998999999998 10.110001 9.0499989999999997
564 2 19.68 9.0399999999999991 9.0499989999999997
565 1 20.739998 7.9800000000000004 8.0399999999999991
566 2 20.209999 7.4400000000000004 7.46
567 2 21.280000999999999 8.5099999999999998 7.46
568 1 23.929998000000001 11.17 7.9100000000000001
569 2 23.399999999999999 11.699999999999999 8.5
570 2 24.470001 10.629999 8.5
571 1 23.929998000000001 7.9800000000000004 11.23
572 2 24.470001 8.5099999999999998 10.650001000000001
573 2 23.399999999999999 7.4400000000000004 10.650001000000001
574 1 20.739998 11.23 11.17
575 2 21.280000999999999 10.650001000000001 11.699999999999999
576 2 20.209999 10.650001000000001 10.629999
577 1 0.070000000000000007 12.76 6.3799999999999999
578 2 25.007285000000003 12.23 6.9200000000000008
579 2 25.007285000000003 13.300000000000002 5.8499999999999996
580 1 3.1899999999999999 16.02 6.3799999999999999
581 2 2.6600000000000001 15.43 6.9200000000000008
582 2 3.73 15.43 5.8499999999999996
583 1 3.1299999999999999 12.76 9.5700000000000003
584 2 3.7100000000000004 13.300000000000002 10.110001
585 2 3.7100000000000004 12.23 9.0399999999999991
586 1 0 16.02 9.5700000000000003
587 2 24.987285000000004 15.43 10.110001
588 2 0.54000000000000004 15.43 9.0399999999999991
589 1 1.5999999999999999 14.42 7.9800000000000004
590 2 2.1299999999999999 13.839999000000001 8.5099999999999998
591 2 1.0600000000000001 13.839999000000001 7.4400000000000004
592 1 4.8500000000000005 17.549999 7.9800000000000004
593 2 4.2699999999999996 17.010000000000002 7.4400000000000004
594 2 4.2699999999999996 18.09 8.5099999999999998
595 1 4.79 14.290000000000001 11.17
596 2 4.25 14.880000000000001 11.699999999999999