1c.data (written by ASE) 

1536 	 atoms 
2  atom types
0.0      25.527285000000003  xlo xhi
0.0      25.527285000000003  ylo yhi
0.0      25.527285000000003  zlo zhi


Atoms 

1 1 0 0 0.070000000000000007
2 2 0.54000000000000004 24.987285000000004 25.007285000000003
3 2 24.987285000000004 0.54000000000000004 25.007285000000003
4 1 3.2599999999999998 3.1899999999999999 0
5 2 2.6699999999999999 3.73 24.987285000000004
6 2 2.6699999999999999 2.6600000000000001 0.54000000000000004
7 1 3.1899999999999999 0 3.1299999999999999
8 2 3.73 0.54000000000000004 3.7100000000000004
9 2 2.6600000000000001 24.987285000000004 3.7100000000000004
10 1 0 3.1899999999999999 3.2599999999999998
11 2 0.54000000000000004 2.6600000000000001 2.6699999999999999
12 2 24.987285000000004 3.73 2.6699999999999999
13 1 1.5999999999999999 1.6599999999999999 1.5999999999999999
14 2 2.1299999999999999 1.0700000000000001 2.1299999999999999
15 2 1.0600000000000001 1.0700000000000001 1.0600000000000001
16 1 4.79 4.79 1.6599999999999999
17 2 4.25 4.25 1.0700000000000001
18 2 5.3200000000000003 5.3200000000000003 1.0700000000000001
19 1 4.7199999999999998 1.5999999999999999 4.79
20 2 5.3099999999999996 2.1299999999999999 4.25
21 2 5.3099999999999996 1.0600000000000001 5.3200000000000003
22 1 1.5999999999999999 4.79 4.8500000000000005
23 2 2.1299999999999999 5.3200000000000003 4.2699999999999996
24 2 1.0600000000000001 4.25 4.2699999999999996
25 1 6.4500000000000002 0 0
26 2 5.8600000000000003 0.54000000000000004 24.987285000000004
27 2 5.8600000000000003 24.987285000000004 0.54000000000000004
28 1 9.5700000000000003 3.2599999999999998 0
29 2 10.110001 2.6699999999999999 24.987285000000004
30 2 9.0399999999999991 2.6699999999999999 0.54000000000000004
31 1 9.5100000000000016 0 3.1899999999999999
32 2 10.089999000000001 0.54000000000000004 3.73
33 2 10.089999000000001 24.987285000000004 2.6600000000000001
34 1 6.3799999999999999 3.1899999999999999 3.2599999999999998
35 2 5.8499999999999996 3.73 2.6699999999999999
36 2 6.9200000000000008 2.6600000000000001 2.6699999999999999
37 1 7.9800000000000004 1.6599999999999999 1.5999999999999999
38 2 7.4400000000000004 1.0700000000000001 1.0600000000000001
39 2 8.5099999999999998 1.0700000000000001 2.1299999999999999
40 1 11.17 4.79 1.6599999999999999
41 2 11.699999999999999 5.3200000000000003 1.0700000000000001
42 2 10.629999 4.25 1.0700000000000001
43 1 11.17 1.53 4.79
44 2 10.629999 2.1200000000000001 5.3200000000000003
45 2 11.699999999999999 2.1200000000000001 4.25
46 1 8.0399999999999991 4.79 4.79
47 2 7.46 5.3200000000000003 5.3200000000000003
48 2 7.46 4.25 4.25
49 1 12.699999999999999 0 0
50 2 13.279999999999999 24.987285000000004 24.987285000000004
51 2 13.279999999999999 0.54000000000000004 0.54000000000000004
52 1 15.950001 3.1899999999999999 0.070000000000000007
53 2 16.489999999999998 2.6600000000000001 25.007285000000003
54 2 15.42 3.73 25.007285000000003
55 1 15.950001 0.070000000000000007 3.1899999999999999
56 2 16.489999999999998 25.007285000000003 2.6600000000000001
57 2 15.42 25.007285000000003 3.73
58 1 12.76 3.1899999999999999 3.2599999999999998
59 2 12.23 3.73 2.6699999999999999
60 2 13.300000000000002 2.6600000000000001 2.6699999999999999
61 1 14.290000000000001 1.5999999999999999 1.5999999999999999
62 2 14.880000000000001 2.1299999999999999 1.0600000000000001
63 2 14.880000000000001 1.0600000000000001 2.1299999999999999
64 1 17.549999 4.8500000000000005 1.5999999999999999
65 2 17.010000000000002 4.2699999999999996 1.0600000000000001
66 2 18.09 4.2699999999999996 2.1299999999999999
67 1 17.619999 1.5999999999999999 4.79
68 2 17.029999 2.1299999999999999 5.3200000000000003
69 2 17.029999 1.0600000000000001 4.25
70 1 14.42 4.79 4.79
71 2 13.839999000000001 5.3200000000000003 5.3200000000000003
72 2 13.839999000000001 4.25 4.25
73 1 19.149999999999999 25.457285000000002 0
74 2 19.68 0.52000000000000002 0.54000000000000004
75 2 18.609998999999998 0.52000000000000002 24.987285000000004
76 1 22.34 3.1899999999999999 0.070000000000000007
77 2 22.869999 2.6600000000000001 25.007285000000003
78 2 21.800001000000005 3.73 25.007285000000003
79 1 22.34 0 3.1299999999999999
80 2 22.869999 0.54000000000000004 3.7100000000000004
81 2 21.800001000000005 24.987285000000004 3.7100000000000004
82 1 19.149999999999999 3.2599999999999998 3.1899999999999999
83 2 18.609998999999998 2.6699999999999999 3.73
84 2 19.68 2.6699999999999999 2.6600000000000001
85 1 20.68 1.5999999999999999 1.5999999999999999
86 2 21.259998 1.0600000000000001 2.1299999999999999
87 2 21.259998 2.1299999999999999 1.0600000000000001
88 1 23.929998000000001 4.79 1.6599999999999999
89 2 23.399999999999999 4.25 1.0700000000000001
90 2 24.470001 5.3200000000000003 1.0700000000000001
91 1 23.929998000000001 1.53 4.79
92 2 23.399999999999999 2.1200000000000001 5.3200000000000003
93 2 24.470001 2.1200000000000001 4.25
94 1 20.810001 4.79 4.79
95 2 20.220001 4.25 4.25
96 2 20.220001 5.3200000000000003 5.3200000000000003
97 1 25.457285000000002 6.3799999999999999 0
98 2 0.52000000000000002 5.8499999999999996 24.987285000000004
99 2 0.52000000000000002 6.9200000000000008 0.54000000000000004
100 1 3.2599999999999998 9.5700000000000003 0
101 2 2.6699999999999999 10.110001 24.987285000000004
102 2 2.6699999999999999 9.0399999999999991 0.54000000000000004
103 1 3.1299999999999999 6.3799999999999999 3.1899999999999999
104 2 3.7100000000000004 6.9200000000000008 3.73
105 2 3.7100000000000004 5.8499999999999996 2.6600000000000001
106 1 0.070000000000000007 9.5700000000000003 3.1899999999999999
107 2 25.007285000000003 10.110001 2.6600000000000001
108 2 25.007285000000003 9.0399999999999991 3.73
109 1 1.5999999999999999 7.9800000000000004 1.53
110 2 2.1299999999999999 7.4400000000000004 2.1200000000000001
111 2 1.0600000000000001 8.5099999999999998 2.1200000000000001
112 1 4.79 11.23 1.5999999999999999
113 2 4.25 10.650001000000001 1.0600000000000001
114 2 5.3200000000000003 10.650001000000001 2.1299999999999999
115 1 4.79 7.9100000000000001 4.79
116 2 4.25 8.5 5.3200000000000003
117 2 5.3200000000000003 8.5 4.25
118 1 1.5999999999999999 11.17 4.8500000000000005
119 2 2.1299999999999999 11.699999999999999 4.2699999999999996
120 2 1.0600000000000001 10.629999 4.2699999999999996
121 1 6.3799999999999999 6.3200000000000003 0
122 2 6.9200000000000008 6.9000000000000012 0.54000000000000004
123 2 5.8499999999999996 6.9000000000000012 24.987285000000004
124 1 9.5700000000000003 9.5100000000000016 0
125 2 10.110001 10.089999000000001 0.54000000000000004
126 2 9.0399999999999991 10.089999000000001 24.987285000000004
127 1 9.5700000000000003 6.4500000000000002 3.1899999999999999
128 2 9.0399999999999991 5.8600000000000003 3.73
129 2 10.110001 5.8600000000000003 2.6600000000000001
130 1 6.3200000000000003 9.5700000000000003 3.1899999999999999
131 2 6.9000000000000012 9.0399999999999991 2.6600000000000001
132 2 6.9000000000000012 10.110001 3.73
133 1 7.9100000000000001 7.9800000000000004 1.5999999999999999
134 2 8.5 8.5099999999999998 1.0600000000000001
135 2 8.5 7.4400000000000004 2.1299999999999999
136 1 11.1 11.17 1.5999999999999999
137 2 11.690001000000001 11.699999999999999 1.0600000000000001
138 2 11.690001000000001 10.629999 2.1299999999999999
139 1 11.23 7.9800000000000004 4.79
140 2 10.650001000000001 7.4400000000000004 4.25
141 2 10.650001000000001 8.5099999999999998 5.3200000000000003
142 1 7.9800000000000004 11.1 4.79
143 2 8.5099999999999998 11.690001000000001 4.25
144 2 7.4400000000000004 11.690001000000001 5.3200000000000003
145 1 12.76 6.3799999999999999 0.070000000000000007
146 2 12.23 6.9200000000000008 25.007285000000003
147 2 13.300000000000002 5.8499999999999996 25.007285000000003
148 1 15.950001 9.6399989999999995 0
149 2 15.42 9.0499989999999997 0.54000000000000004
150 2 16.489999999999998 9.0499989999999997 24.987285000000004
151 1 15.950001 6.4500000000000002 3.1899999999999999
152 2 15.42 5.8600000000000003 3.73
153 2 16.489999999999998 5.8600000000000003 2.6600000000000001
154 1 12.76 9.6399989999999995 3.1899999999999999
155 2 12.23 9.0499989999999997 3.73
156 2 13.300000000000002 9.0499989999999997 2.6600000000000001
157 1 14.360000000000001 8.0399999999999991 1.5999999999999999
158 2 14.889999 7.46 2.1299999999999999
159 2 13.820000000000002 7.46 1.0600000000000001
160 1 17.549999 11.23 1.5999999999999999
161 2 17.010000000000002 10.650001000000001 1.0600000000000001
162 2 18.09 10.650001000000001 2.1299999999999999
163 1 17.619999 7.9800000000000004 4.79
164 2 17.029999 8.5099999999999998 5.3200000000000003
165 2 17.029999 7.4400000000000004 4.25
166 1 14.360000000000001 11.17 4.8500000000000005
167 2 13.820000000000002 10.629999 4.2699999999999996
168 2 14.889999 11.699999999999999 4.2699999999999996
169 1 19.149999999999999 6.3799999999999999 25.457285000000002
170 2 19.68 6.9200000000000008 0.52000000000000002
171 2 18.609998999999998 5.8499999999999996 0.52000000000000002
172 1 22.34 9.6399989999999995 0
173 2 21.800001000000005 9.0499989999999997 0.54000000000000004
174 2 22.869999 9.0499989999999997 24.987285000000004
175 1 22.34 6.4500000000000002 3.1899999999999999
176 2 22.869999 5.8600000000000003 2.6600000000000001
177 2 21.800001000000005 5.8600000000000003 3.73
178 1 19.149999999999999 9.5700000000000003 3.1299999999999999
179 2 19.68 10.110001 3.7100000000000004
180 2 18.609998999999998 9.0399999999999991 3.7100000000000004
181 1 20.739998 7.9800000000000004 1.53
182 2 20.209999 8.5099999999999998 2.1200000000000001
183 2 21.280000999999999 7.4400000000000004 2.1200000000000001
184 1 24 11.17 1.5999999999999999
185 2 23.41 11.699999999999999 2.1299999999999999
186 2 23.41 10.629999 1.0600000000000001
187 1 23.929998000000001 8.0399999999999991 4.79
188 2 24.470001 7.46 5.3200000000000003
189 2 23.399999999999999 7.46 4.25
190 1 20.739998 11.17 4.7199999999999998
191 2 21.280000999999999 10.629999 5.3099999999999996
192 2 20.209999 11.699999999999999 5.3099999999999996
193 1 0 12.76 25.457285000000002
194 2 24.987285000000004 12.23 0.52000000000000002
195 2 0.54000000000000004 13.300000000000002 0.52000000000000002
196 1 3.1899999999999999 15.950001 0.070000000000000007
197 2 2.6600000000000001 16.489999999999998 25.007285000000003
198 2 3.73 15.42 25.007285000000003
199 1 3.1899999999999999 12.76 3.2599999999999998
200 2 2.6600000000000001 13.300000000000002 2.6699999999999999
201 2 3.73 12.23 2.6699999999999999
202 1 0.070000000000000007 15.950001 3.1899999999999999
203 2 25.007285000000003 16.489999999999998 2.6600000000000001
204 2 25.007285000000003 15.42 3.73
205 1 1.5999999999999999 14.290000000000001 1.5999999999999999
206 2 2.1299999999999999 14.880000000000001 1.0600000000000001
207 2 1.0600000000000001 14.880000000000001 2.1299999999999999
208 1 4.79 17.619999 1.5999999999999999
209 2 5.3200000000000003 17.029999 2.1299999999999999
210 2 4.25 17.029999 1.0600000000000001
211 1 4.8500000000000005 14.360000000000001 4.79
212 2 4.2699999999999996 13.820000000000002 4.25
213 2 4.2699999999999996 14.889999 5.3200000000000003
214 1 1.6599999999999999 17.549999 4.79
215 2 1.0700000000000001 18.09 5.3200000000000003
216 2 1.0700000000000001 17.010000000000002 4.25
217 1 6.3799999999999999 12.76 25.457285000000002
218 2 6.9200000000000008 13.300000000000002 0.52000000000000002
219 2 5.8499999999999996 12.23 0.52000000000000002
220 1 9.5700000000000003 15.950001 25.457285000000002
221 2 9.0399999999999991 15.42 0.52000000000000002
222 2 10.110001 16.489999999999998 0.52000000000000002
223 1 9.5100000000000016 12.76 3.1899999999999999
224 2 10.089999000000001 13.300000000000002 3.73
225 2 10.089999000000001 12.23 2.6600000000000001
226 1 6.3799999999999999 15.950001 3.1299999999999999
227 2 6.9200000000000008 16.489999999999998 3.7100000000000004
228 2 5.8499999999999996 15.42 3.7100000000000004
229 1 7.9800000000000004 14.360000000000001 1.53
230 2 7.4400000000000004 14.889999 2.1200000000000001
231 2 8.5099999999999998 13.820000000000002 2.1200000000000001
232 1 11.17 17.48 1.5999999999999999
233 2 11.699999999999999 18.07 1.0600000000000001
234 2 10.629999 18.07 2.1299999999999999
235 1 11.1 14.360000000000001 4.79
236 2 11.690001000000001 14.889999 4.25
237 2 11.690001000000001 13.820000000000002 5.3200000000000003
238 1 7.9800000000000004 17.48 4.79
239 2 8.5099999999999998 18.07 4.25
240 2 7.4400000000000004 18.07 5.3200000000000003
241 1 12.76 12.699999999999999 0
242 2 13.300000000000002 13.279999999999999 0.54000000000000004
243 2 12.23 13.279999999999999 24.987285000000004
244 1 15.889999000000001 15.950001 0
245 2 16.48 15.42 24.987285000000004
246 2 16.48 16.489999999999998 0.54000000000000004
247 1 15.950001 12.76 3.2599999999999998
248 2 15.42 13.300000000000002 2.6699999999999999
249 2 16.489999999999998 12.23 2.6699999999999999
250 1 12.76 15.889999000000001 3.1899999999999999
251 2 12.23 16.48 2.6600000000000001
252 2 13.300000000000002 16.48 3.73
253 1 14.360000000000001 14.290000000000001 1.5999999999999999
254 2 13.820000000000002 14.880000000000001 2.1299999999999999
255 2 14.889999 14.880000000000001 1.0600000000000001
256 1 17.549999 17.549999 1.53
257 2 17.010000000000002 18.09 2.1200000000000001
258 2 18.09 17.010000000000002 2.1200000000000001
259 1 17.549999 14.360000000000001 4.8500000000000005
260 2 17.010000000000002 13.820000000000002 4.2699999999999996
261 2 18.09 14.889999 4.2699999999999996
262 1 14.360000000000001 17.549999 4.7199999999999998
263 2 13.820000000000002 18.09 5.3099999999999996
264 2 14.889999 17.010000000000002 5.3099999999999996
265 1 19.209999 12.76 0
266 2 18.619999 12.23 0.54000000000000004
267 2 18.619999 13.300000000000002 24.987285000000004
268 1 22.34 15.950001 25.457285000000002
269 2 21.800001000000005 15.42 0.52000000000000002
270 2 22.869999 16.489999999999998 0.52000000000000002
271 1 22.34 12.76 3.1299999999999999
272 2 21.800001000000005 12.23 3.7100000000000004
273 2 22.869999 13.300000000000002 3.7100000000000004
274 1 19.079999999999998 15.950001 3.1899999999999999
275 2 19.670000000000002 15.42 2.6600000000000001
276 2 19.670000000000002 16.489999999999998 3.73
277 1 20.739998 14.42 1.5999999999999999
278 2 20.209999 13.839999000000001 1.0600000000000001
279 2 21.280000999999999 13.839999000000001 2.1299999999999999
280 1 23.929998000000001 17.48 1.5999999999999999
281 2 23.399999999999999 18.07 2.1299999999999999
282 2 24.470001 18.07 1.0600000000000001
283 1 23.929998000000001 14.360000000000001 4.7199999999999998
284 2 23.399999999999999 14.889999 5.3099999999999996
285 2 24.470001 13.820000000000002 5.3099999999999996
286 1 20.68 17.549999 4.79
287 2 21.259998 18.09 4.25
288 2 21.259998 17.010000000000002 5.3200000000000003
289 1 25.457285000000002 19.149999999999999 0
290 2 0.52000000000000002 19.68 0.54000000000000004
291 2 0.52000000000000002 18.609998999999998 24.987285000000004
292 1 3.1899999999999999 22.399999999999999 0
293 2 3.73 21.82 24.987285000000004
294 2 2.6600000000000001 21.82 0.54000000000000004
295 1 3.1899999999999999 19.209999 3.1899999999999999
296 2 2.6600000000000001 18.619999 3.73
297 2 3.73 18.619999 2.6600000000000001
298 1 0.070000000000000007 22.34 3.1899999999999999
299 2 25.007285000000003 21.800001000000005 3.73
300 2 25.007285000000003 22.869999 2.6600000000000001
301 1 1.5999999999999999 20.739998 1.53
302 2 1.0600000000000001 21.280000999999999 2.1200000000000001
303 2 2.1299999999999999 20.209999 2.1200000000000001
304 1 4.8500000000000005 23.929998000000001 1.5999999999999999
305 2 4.2699999999999996 23.399999999999999 1.0600000000000001
306 2 4.2699999999999996 24.470001 2.1299999999999999
307 1 4.79 20.739998 4.8500000000000005
308 2 5.3200000000000003 21.280000999999999 4.2699999999999996
309 2 4.25 20.209999 4.2699999999999996
310 1 1.6599999999999999 23.929998000000001 4.79
311 2 1.0700000000000001 23.399999999999999 4.25
312 2 1.0700000000000001 24.470001 5.3200000000000003
313 1 6.3799999999999999 19.209999 0
314 2 6.9200000000000008 18.619999 24.987285000000004
315 2 5.8499999999999996 18.619999 0.54000000000000004
316 1 9.5700000000000003 22.34 0.070000000000000007
317 2 10.110001 21.800001000000005 25.007285000000003
318 2 9.0399999999999991 22.869999 25.007285000000003
319 1 9.5700000000000003 19.079999999999998 3.1899999999999999
320 2 10.110001 19.670000000000002 3.73
321 2 9.0399999999999991 19.670000000000002 2.6600000000000001
322 1 6.3799999999999999 22.34 3.2599999999999998
323 2 5.8499999999999996 22.869999 2.6699999999999999
324 2 6.9200000000000008 21.800001000000005 2.6699999999999999
325 1 7.9800000000000004 20.739998 1.6599999999999999
326 2 8.5099999999999998 21.280000999999999 1.0700000000000001
327 2 7.4400000000000004 20.209999 1.0700000000000001
328 1 11.17 23.929998000000001 1.6599999999999999
329 2 11.699999999999999 24.470001 1.0700000000000001
330 2 10.629999 23.399999999999999 1.0700000000000001
331 1 11.17 20.68 4.79
332 2 11.699999999999999 21.259998 4.25
333 2 10.629999 21.259998 5.3200000000000003
334 1 7.9800000000000004 23.929998000000001 4.8500000000000005
335 2 8.5099999999999998 24.470001 4.2699999999999996
336 2 7.4400000000000004 23.399999999999999 4.2699999999999996
337 1 12.699999999999999 19.149999999999999 0
338 2 13.279999999999999 19.68 0.54000000000000004
339 2 13.279999999999999 18.609998999999998 24.987285000000004
340 1 15.950001 22.399999999999999 0
341 2 15.42 21.82 0.54000000000000004
342 2 16.489999999999998 21.82 24.987285000000004
343 1 15.950001 19.149999999999999 3.1299999999999999
344 2 15.42 18.609998999999998 3.7100000000000004
345 2 16.489999999999998 19.68 3.7100000000000004
346 1 12.76 22.27 3.1899999999999999
347 2 13.300000000000002 22.860001 3.73
348 2 12.23 22.860001 2.6600000000000001
349 1 14.360000000000001 20.739998 1.53
350 2 14.889999 20.209999 2.1200000000000001
351 2 13.820000000000002 21.280000999999999 2.1200000000000001
352 1 17.549999 23.929998000000001 1.6599999999999999
353 2 18.09 24.470001 1.0700000000000001
354 2 17.010000000000002 23.399999999999999 1.0700000000000001
355 1 17.48 20.739998 4.79
356 2 18.07 21.280000999999999 4.25
357 2 18.07 20.209999 5.3200000000000003
358 1 14.360000000000001 23.929998000000001 4.7199999999999998
359 2 14.889999 23.399999999999999 5.3099999999999996
360 2 13.820000000000002 24.470001 5.3099999999999996
361 1 19.149999999999999 19.209999 0
362 2 18.609998999999998 18.619999 0.54000000000000004
363 2 19.68 18.619999 24.987285000000004
364 1 22.34 22.34 25.457285000000002
365 2 21.800001000000005 21.800001000000005 0.52000000000000002
366 2 22.869999 22.869999 0.52000000000000002
367 1 22.34 19.079999999999998 3.1899999999999999
368 2 22.869999 19.670000000000002 3.73
369 2 21.800001000000005 19.670000000000002 2.6600000000000001
370 1 19.149999999999999 22.27 3.1899999999999999
371 2 18.609998999999998 22.860001 2.6600000000000001
372 2 19.68 22.860001 3.73
373 1 20.810001 20.739998 1.5999999999999999
374 2 20.220001 21.280000999999999 2.1299999999999999
375 2 20.220001 20.209999 1.0600000000000001
376 1 23.929998000000001 23.870000999999998 1.5999999999999999
377 2 24.470001 24.449998999999998 1.0600000000000001
378 2 23.399999999999999 24.449998999999998 2.1299999999999999
379 1 23.929998000000001 20.739998 4.7199999999999998
380 2 23.399999999999999 21.280000999999999 5.3099999999999996
381 2 24.470001 20.209999 5.3099999999999996
382 1 20.739998 23.929998000000001 4.7199999999999998
383 2 20.209999 24.470001 5.3099999999999996
384 2 21.280000999999999 23.399999999999999 5.3099999999999996
385 1 0 25.457285000000002 6.3799999999999999
386 2 24.987285000000004 0.52000000000000002 5.8499999999999996
387 2 0.54000000000000004 0.52000000000000002 6.9200000000000008
388 1 3.1899999999999999 3.1899999999999999 6.4500000000000002
389 2 2.6600000000000001 3.73 5.8600000000000003
390 2 3.73 2.6600000000000001 5.8600000000000003
391 1 3.1899999999999999 25.457285000000002 9.5700000000000003
392 2 3.73 0.52000000000000002 10.110001
393 2 2.6600000000000001 0.52000000000000002 9.0399999999999991
394 1 0 3.1899999999999999 9.5100000000000016
395 2 24.987285000000004 2.6600000000000001 10.089999000000001
396 2 0.54000000000000004 3.73 10.089999000000001
397 1 1.5999999999999999 1.53 7.9800000000000004
398 2 1.0600000000000001 2.1200000000000001 8.5099999999999998
399 2 2.1299999999999999 2.1200000000000001 7.4400000000000004
400 1 4.79 4.8500000000000005 7.9800000000000004
401 2 5.3200000000000003 4.2699999999999996 8.5099999999999998
402 2 4.25 4.2699999999999996 7.4400000000000004
403 1 4.7199999999999998 1.5999999999999999 11.17
404 2 5.3099999999999996 1.0600000000000001 11.699999999999999
405 2 5.3099999999999996 2.1299999999999999 10.629999
406 1 1.5999999999999999 4.7199999999999998 11.17
407 2 1.0600000000000001 5.3099999999999996 11.699999999999999
408 2 2.1299999999999999 5.3099999999999996 10.629999
409 1 6.3799999999999999 0.070000000000000007 6.3799999999999999
410 2 6.9200000000000008 25.007285000000003 5.8499999999999996
411 2 5.8499999999999996 25.007285000000003 6.9200000000000008
412 1 9.5700000000000003 3.1299999999999999 6.3799999999999999
413 2 10.110001 3.7100000000000004 6.9200000000000008
414 2 9.0399999999999991 3.7100000000000004 5.8499999999999996
415 1 9.6399989999999995 0 9.5700000000000003
416 2 9.0499989999999997 0.54000000000000004 9.0399999999999991
417 2 9.0499989999999997 24.987285000000004 10.110001
418 1 6.3200000000000003 3.1899999999999999 9.5700000000000003
419 2 6.9000000000000012 3.73 10.110001
420 2 6.9000000000000012 2.6600000000000001 9.0399999999999991
421 1 7.9800000000000004 1.5999999999999999 8.0399999999999991
422 2 7.4400000000000004 1.0600000000000001 7.46
423 2 8.5099999999999998 2.1299999999999999 7.46
424 1 11.1 4.79 7.9800000000000004
425 2 11.690001000000001 5.3200000000000003 7.4400000000000004
426 2 11.690001000000001 4.25 8.5099999999999998
427 1 11.17 1.6599999999999999 11.17
428 2 11.699999999999999 1.0700000000000001 11.699999999999999
429 2 10.629999 1.0700000000000001 10.629999
430 1 7.9800000000000004 4.79 11.1
431 2 8.5099999999999998 4.25 11.690001000000001
432 2 7.4400000000000004 5.3200000000000003 11.690001000000001
433 1 12.83 0 6.3799999999999999
434 2 12.24 24.987285000000004 6.9200000000000008
435 2 12.24 0.54000000000000004 5.8499999999999996
436 1 16.02 3.1899999999999999 6.3799999999999999
437 2 15.43 2.6600000000000001 6.9200000000000008
438 2 15.43 3.73 5.8499999999999996
439 1 16.02 0 9.5700000000000003
440 2 15.43 24.987285000000004 10.110001
441 2 15.43 0.54000000000000004 9.0399999999999991
442 1 12.76 3.1899999999999999 9.5100000000000016
443 2 13.300000000000002 3.73 10.089999000000001
444 2 12.23 2.6600000000000001 10.089999000000001
445 1 14.42 1.5999999999999999 7.9800000000000004
446 2 13.839999000000001 1.0600000000000001 7.4400000000000004
447 2 13.839999000000001 2.1299999999999999 8.5099999999999998
448 1 17.619999 4.79 7.9800000000000004
449 2 17.029999 4.25 7.4400000000000004
450 2 17.029999 5.3200000000000003 8.5099999999999998
451 1 17.549999 1.5999999999999999 11.23
452 2 17.010000000000002 1.0600000000000001 10.650001000000001
453 2 18.09 2.1299999999999999 10.650001000000001
454 1 14.360000000000001 4.79 11.1
455 2 13.820000000000002 5.3200000000000003 11.690001000000001
456 2 14.889999 4.25 11.690001000000001
457 1 19.149999999999999 25.457285000000002 6.3799999999999999
458 2 18.609998999999998 0.52000000000000002 5.8499999999999996
459 2 19.68 0.52000000000000002 6.9200000000000008
460 1 22.34 3.1299999999999999 6.3799999999999999
461 2 21.800001000000005 3.7100000000000004 5.8499999999999996
462 2 22.869999 3.7100000000000004 6.9200000000000008
463 1 22.399999999999999 0 9.5700000000000003
464 2 21.82 0.54000000000000004 9.0399999999999991
465 2 21.82 24.987285000000004 10.110001
466 1 19.149999999999999 3.1299999999999999 9.5700000000000003
467 2 19.68 3.7100000000000004 10.110001
468 2 18.609998999999998 3.7100000000000004 9.0399999999999991
469 1 20.739998 1.53 7.9800000000000004
470 2 21.280000999999999 2.1200000000000001 7.4400000000000004
471 2 20.209999 2.1200000000000001 8.5099999999999998
472 1 23.929998000000001 4.79 7.9100000000000001
473 2 23.399999999999999 5.3200000000000003 8.5
474 2 24.470001 4.25 8.5
475 1 24 1.5999999999999999 11.17
476 2 23.41 2.1299999999999999 11.699999999999999
477 2 23.41 1.0600000000000001 10.629999
478 1 20.739998 4.7199999999999998 11.17
479 2 21.280000999999999 5.3099999999999996 10.629999
480 2 20.209999 5.3099999999999996 11.699999999999999
481 1 0 6.4500000000000002 6.3799999999999999
482 2 0.54000000000000004 5.8600000000000003 5.8499999999999996
483 2 24.987285000000004 5.8600000000000003 6.9200000000000008
484 1 3.2599999999999998 9.5700000000000003 6.3799999999999999
485 2 2.6699999999999999 9.0399999999999991 6.9200000000000008
486 2 2.6699999999999999 10.110001 5.8499999999999996
487 1 3.1899999999999999 6.3799999999999999 9.6399989999999995
488 2 3.73 5.8499999999999996 9.0499989999999997
489 2 2.6600000000000001 6.9200000000000008 9.0499989999999997
490 1 0 9.5100000000000016 9.5700000000000003
491 2 24.987285000000004 10.089999000000001 9.0399999999999991
492 2 0.54000000000000004 10.089999000000001 10.110001
493 1 1.6599999999999999 7.9800000000000004 7.9800000000000004
494 2 1.0700000000000001 8.5099999999999998 8.5099999999999998
495 2 1.0700000000000001 7.4400000000000004 7.4400000000000004
496 1 4.79 11.23 7.9800000000000004
497 2 4.25 10.650001000000001 7.4400000000000004
498 2 5.3200000000000003 10.650001000000001 8.5099999999999998
499 1 4.8500000000000005 7.9800000000000004 11.17
500 2 4.2699999999999996 7.4400000000000004 10.629999
501 2 4.2699999999999996 8.5099999999999998 11.699999999999999
502 1 1.5999999999999999 11.1 11.17
503 2 1.0600000000000001 11.690001000000001 11.699999999999999
504 2 2.1299999999999999 11.690001000000001 10.629999
505 1 6.4500000000000002 6.3799999999999999 6.3799999999999999
506 2 5.8600000000000003 6.9200000000000008 5.8499999999999996
507 2 5.8600000000000003 5.8499999999999996 6.9200000000000008
508 1 9.6399989999999995 9.5700000000000003 6.3799999999999999
509 2 9.0499989999999997 10.110001 5.8499999999999996
510 2 9.0499989999999997 9.0399999999999991 6.9200000000000008
511 1 9.5700000000000003 6.4500000000000002 9.5700000000000003
512 2 9.0399999999999991 5.8600000000000003 10.110001
513 2 10.110001 5.8600000000000003 9.0399999999999991
514 1 6.3799999999999999 9.6399989999999995 9.5700000000000003
515 2 6.9200000000000008 9.0499989999999997 9.0399999999999991
516 2 5.8499999999999996 9.0499989999999997 10.110001
517 1 7.9800000000000004 8.0399999999999991 7.9800000000000004
518 2 8.5099999999999998 7.46 8.5099999999999998
519 2 7.4400000000000004 7.46 7.4400000000000004
520 1 11.17 11.23 7.9800000000000004
521 2 11.699999999999999 10.650001000000001 8.5099999999999998
522 2 10.629999 10.650001000000001 7.4400000000000004
523 1 11.23 7.9800000000000004 11.17
524 2 10.650001000000001 7.4400000000000004 10.629999
525 2 10.650001000000001 8.5099999999999998 11.699999999999999
526 1 7.9800000000000004 11.17 11.23
527 2 8.5099999999999998 11.699999999999999 10.650001000000001
528 2 7.4400000000000004 10.629999 10.650001000000001
529 1 12.76 6.3200000000000003 6.3799999999999999
530 2 13.300000000000002 6.9000000000000012 6.9200000000000008
531 2 12.23 6.9000000000000012 5.8499999999999996
532 1 16.02 9.5700000000000003 6.3799999999999999
533 2 15.43 9.0399999999999991 6.9200000000000008
534 2 15.43 10.110001 5.8499999999999996
535 1 15.950001 6.3799999999999999 9.5100000000000016
536 2 16.489999999999998 6.9200000000000008 10.089999000000001
537 2 15.42 5.8499999999999996 10.089999000000001
538 1 12.76 9.5700000000000003 9.5100000000000016
539 2 12.23 9.0399999999999991 10.089999000000001
540 2 13.300000000000002 10.110001 10.089999000000001
541 1 14.360000000000001 7.9800000000000004 7.9100000000000001
542 2 14.889999 7.4400000000000004 8.5
543 2 13.820000000000002 8.5099999999999998 8.5
544 1 17.549999 11.17 8.0399999999999991
545 2 17.010000000000002 10.629999 7.46
546 2 18.09 11.699999999999999 7.46
547 1 17.549999 7.9100000000000001 11.17
548 2 17.010000000000002 8.5 11.699999999999999
549 2 18.09 8.5 10.629999
550 1 14.290000000000001 11.17 11.17
551 2 14.880000000000001 11.699999999999999 10.629999
552 2 14.880000000000001 10.629999 11.699999999999999
553 1 19.209999 6.3799999999999999 6.3799999999999999
554 2 18.619999 5.8499999999999996 6.9200000000000008
555 2 18.619999 6.9200000000000008 5.8499999999999996
556 1 22.34 9.6399989999999995 6.3799999999999999
557 2 21.800001000000005 9.0499989999999997 6.9200000000000008
558 2 22.869999 9.0499989999999997 5.8499999999999996
559 1 22.34 6.3200000000000003 9.5700000000000003
560 2 21.800001000000005 6.9000000000000012 9.0399999999999991
561 2 22.869999 6.9000000000000012 10.110001
562 1 19.149999999999999 9.5100000000000016 9.5700000000000003
563 2 19.68 10.089999000000001 10.110001
564 2 18.609998999999998 10.089999000000001 9.0399999999999991
565 1 20.810001 7.9800000000000004 7.9800000000000004
566 2 20.220001 8.5099999999999998 8.5099999999999998
567 2 20.220001 7.4400000000000004 7.4400000000000004
568 1 24 11.17 7.9800000000000004
569 2 23.41 10.629999 7.4400000000000004
570 2 23.41 11.699999999999999 8.5099999999999998
571 1 23.929998000000001 7.9100000000000001 11.17
572 2 24.470001 8.5 10.629999
573 2 23.399999999999999 8.5 11.699999999999999
574 1 20.739998 11.17 11.1
575 2 21.280000999999999 10.629999 11.690001000000001
576 2 20.209999 11.699999999999999 11.690001000000001
577 1 0 12.83 6.3799999999999999
578 2 24.987285000000004 12.24 6.9200000000000008
579 2 0.54000000000000004 12.24 5.8499999999999996
580 1 3.1899999999999999 15.889999000000001 6.3799999999999999
581 2 3.73 16.48 6.9200000000000008
582 2 2.6600000000000001 16.48 5.8499999999999996
583 1 3.1899999999999999 12.76 9.6399989999999995
584 2 2.6600000000000001 13.300000000000002 9.0499989999999997
585 2 3.73 12.23 9.0499989999999997
586 1 25.457285000000002 15.950001 9.5700000000000003