LAMMPS data file via write_data, version 7 Aug 2019, timestep = 4000000

288 atoms
2 atom types

-3.7173914679240028e-02 1.3209419414683865e+01 xlo xhi
-4.4299377860962608e-02 1.5741389277862062e+01 ylo yhi
-4.1372343358503372e-02 1.4701293643358163e+01 zlo zhi

Masses

1 15.9994
2 1.00794

Atoms # atomic

282 2 3.4223636105081012e+00 2.7744964546995070e+00 3.9595792274157535e+00 -2 1 1
35 2 1.7487954856232877e+00 3.7157495020852815e+00 2.3595675219839602e+00 1 2 1
34 1 1.8551611931573104e+00 3.6376855611609864e+00 3.3518419067965928e+00 1 2 1
67 1 1.9254607016583944e+00 3.6909104698050919e+00 7.0956463396583180e-01 1 1 0
36 2 1.7478465336942186e+00 4.5121995321475294e+00 3.7713977506709089e+00 1 2 1
204 2 4.1665359015761583e+00 4.5350226801888099e-01 6.8056148052127063e-01 -2 0 1
108 2 3.9727076056311690e+00 7.0943407014464543e-01 3.9756211087963296e+00 -1 0 2
69 2 1.9365490256313116e+00 4.5839555363914259e+00 4.1441919778154818e-01 1 1 0
143 2 5.4797305878437519e-01 2.6825621542134304e+00 4.0514247554289478e+00 2 -1 -2
231 2 3.7735887120925088e-01 3.0868065194574110e+00 6.6659944406080932e-02 -2 1 0
68 2 2.7188215878994240e+00 3.2137956907739498e+00 3.1526544368836562e-01 1 1 0
280 1 4.2187491992951509e+00 2.2366279379731195e+00 4.0766197392487236e+00 -2 1 1
281 2 4.9165889965380893e+00 2.9020384319523043e+00 3.8113190433670487e+00 -2 1 1
161 2 6.3695712347642734e+00 4.1858472946931000e+00 2.3812514605324813e+00 0 0 1
160 1 6.3817711409217521e+00 4.2018319091035830e+00 3.4516730145476577e+00 0 0 1
162 2 7.1119666397840211e+00 3.6575296564509014e+00 3.7593269293158875e+00 0 0 1
256 1 6.2359412813278281e+00 3.8017547206474180e+00 9.4174073625444366e-01 -2 1 1
66 2 8.4509723567328709e+00 5.4729897733570543e-01 2.4079158612710122e-02 0 1 0
258 2 5.9827495389241481e+00 4.7189975116578191e+00 6.4778128453465933e-01 -2 1 1
98 2 8.5717230307450105e+00 2.8984077507913292e-01 3.8761298213744935e+00 2 2 -1
257 2 6.9871058480029946e+00 3.4475310183309817e+00 3.0823704914785072e-01 -2 1 1
263 2 5.0946249771490653e+00 2.6010529300746636e+00 1.0401063395057511e-01 -1 0 2
7 1 8.2923939161182734e+00 2.1461130733349494e+00 4.0807773723608465e+00 0 -1 0
142 1 1.2935148607471403e+01 2.2362113161228363e+00 4.2533895232200889e+00 1 -1 -2
230 2 1.2882736094565400e+01 1.8217787120757600e+00 5.3270541693565698e-01 -3 1 0
228 2 1.3074259568824179e+01 5.4114221769738857e-01 4.0206245600170787e+00 -1 1 1
9 2 9.0787558247287858e+00 2.5615283960753086e+00 3.6350996541610696e+00 0 -1 0
176 2 1.0709513172108519e+01 3.8014588781771228e+00 2.4613557566116215e+00 1 -1 0
177 2 1.1597106093177004e+01 2.9177616134705868e+00 3.3786305502005440e+00 1 -1 0
175 1 1.0772246279259257e+01 3.4453834078899086e+00 3.3499026741409388e+00 1 -1 0
274 1 1.0296768018446327e+01 3.8517036743578621e+00 6.1247873720204604e-01 3 -2 0
276 2 1.1062254787329113e+01 3.3301974496915285e+00 4.1934710736420844e-01 3 -2 0
275 2 1.0360678295463586e+01 4.6395728859586409e+00 7.7167318787500022e-02 3 -2 0
114 2 1.0729503126162761e+01 5.1953186657156865e+00 4.1658558378687749e+00 -1 0 2
138 2 9.0049548340555301e+00 3.1605489148222232e+00 -3.9772974577203968e-02 2 0 1
74 2 2.7811022146735151e+00 6.3724595710024134e+00 4.6588536629616062e+00 0 1 -1
73 1 1.9317775081357846e+00 5.9179000121590803e+00 4.8263760085695901e+00 0 1 -1
188 2 3.8941079196830404e+00 7.5414728324795792e+00 1.7280883579585087e+00 0 0 2
25 1 3.8708909021885458e+00 7.5102134494001023e+00 3.6346476025939416e+00 4 1 1
27 2 3.5503689207355591e+00 8.4268862916146645e+00 3.8063731645103656e+00 4 1 1
124 1 3.6985723716985044e+00 1.0406250289448019e+01 4.3461316177407232e+00 3 -2 0
187 1 3.9440256671814971e+00 7.5404855221650990e+00 7.7530818624658138e-01 0 0 2
189 2 3.9148844358949879e+00 8.4478900782781192e+00 4.3097640208335947e-01 0 0 2
111 2 2.5249378584615796e+00 6.6158291101835083e+00 2.5834808366758594e-01 0 1 1
110 2 8.7554196164097775e-01 6.6012408416272059e+00 3.5447664680280183e-01 0 1 1
284 2 6.6196454546599104e-01 7.0946819546664788e+00 4.2376254198258740e+00 1 -3 1
148 1 4.2276087699859817e+00 1.0170601065681941e+01 1.8286581620839176e-01 -2 -1 1
170 2 6.1935245438882172e+00 5.5293019411478230e+00 3.9913855901630440e+00 -1 1 0
26 2 4.6811582846653010e+00 7.4229442093096427e+00 4.1927903492564988e+00 4 1 1
171 2 7.0730802398240575e+00 6.8620373318438030e+00 4.4114114795026058e+00 -1 1 0
169 1 6.1946189566547609e+00 6.4618093797200631e+00 4.5578862981617236e+00 -1 1 0
233 2 8.6594093057293549e+00 8.6509530807314707e+00 3.6367697290250791e+00 -1 0 3
31 1 8.0287225124306438e+00 1.0005408390229544e+01 4.4297479656391605e+00 -2 1 1
89 2 8.5905764688246897e+00 8.8760069829139336e+00 8.4747529709995245e-02 -1 2 0
90 2 8.5531233963424089e+00 8.0909999781838948e+00 1.4177568155890123e+00 -1 2 0
270 2 5.6825850410530467e+00 6.7995327256978078e+00 3.3310083774665633e-01 0 -2 2
88 1 8.4919765536780591e+00 7.9637137727459653e+00 4.3288364807631147e-01 -1 2 0
269 2 7.2350352001253784e+00 6.9319306671374319e+00 1.5915489696322635e-01 0 -2 2
232 1 8.9610271932645365e+00 7.9070384611252473e+00 3.0598893375434275e+00 -1 0 3
185 2 1.2760043645936967e+01 9.3989773278086108e+00 6.3392213117222124e-02 -1 -1 1
234 2 9.5089977780636694e+00 7.2681894862672243e+00 3.5193682368160579e+00 -1 0 3
283 1 1.3097258680849691e+01 7.5847602620969061e+00 3.9500367969565251e+00 0 -3 1
46 1 1.2678559965207784e+01 7.3690490884190663e+00 9.9153489469043232e-01 1 0 3
48 2 1.2841067255767262e+01 7.2224790825036349e+00 1.9853749553854843e+00 1 0 3
237 2 1.2895186508058941e+01 9.1743748617772916e+00 4.1485850206418515e+00 2 2 2
285 2 1.2394012172016302e+01 7.0101177157072856e+00 4.2954984570602424e+00 0 -3 1
47 2 1.1974958492978027e+01 6.7068740173240320e+00 7.9561839159573411e-01 1 0 3
112 1 1.0799070670251691e+01 6.1360582309776381e+00 4.4810917082126771e+00 -1 0 2
235 1 1.2965965132017436e+01 1.0144279723134220e+01 4.3751317139008661e+00 2 2 2
32 2 8.8915529839943250e+00 1.0332621124672352e+01 4.0801061377583192e+00 -2 1 1
203 2 3.9507498237066767e+00 1.5396399035182130e+01 2.0119644254140288e+00 -2 -1 1
202 1 4.2197096143218706e+00 1.5355940969236661e+01 1.0604028394149230e+00 -2 -1 1
106 1 3.9789007671196197e+00 1.5507462183141119e+01 3.7838119939628636e+00 -1 -1 2
150 2 3.4499120481333367e+00 1.0608147875145690e+01 5.2836330514769458e-01 -2 -1 1
125 2 2.9897589723548945e+00 1.0845869429723669e+01 3.8658879770298671e+00 3 -2 0
107 2 3.3763259575178659e+00 1.5062282884098558e+01 4.3908798115940035e+00 -1 -1 2
92 2 1.0402201724093076e+00 1.0771229538980824e+01 3.3527474460711804e+00 1 0 -2
91 1 1.7251187614978158e+00 1.1464523408271894e+01 3.0473615509482164e+00 1 0 -2
93 2 1.5978964815952037e+00 1.1518355525260644e+01 2.0790419482721916e+00 1 0 -2
4 1 1.7936655549320799e+00 1.1590004770884592e+01 3.1803150717408923e-01 -2 -1 2
18 2 2.1191772286387462e+00 1.2952018229973334e+01 4.2647263351382199e+00 -3 -2 1
212 2 2.8526993048562814e+00 1.4787731601760797e+01 3.4610374994688131e-01 1 -1 1
16 1 2.1983614654435817e+00 1.3824230611408339e+01 4.7625582779664937e+00 -3 -2 1
213 2 1.2016856539979108e+00 1.4829771936109914e+01 -2.2068491685265992e-03 1 -1 1
227 2 7.0467644807349905e-01 1.4956325913237976e+01 3.7518009929970408e+00 0 0 1
99 2 8.5647103325383789e+00 1.5580820270499666e+01 2.5825863703644858e+00 2 1 -1
97 1 8.3760311068568676e+00 1.5258108417641621e+01 3.4356685974422918e+00 2 1 -1
126 2 4.5663998263552292e+00 1.0809831992292038e+01 4.1480272211025131e+00 3 -2 0
64 1 8.6489049139524887e+00 1.5532019095973789e+01 5.5459962640319194e-01 0 0 0
42 2 6.7527280961314720e+00 1.0984167404388538e+01 3.8602127658176526e+00 -1 0 -2
224 2 6.3338802128391745e+00 1.1591766724059889e+01 1.8920023787242743e+00 -1 0 0
40 1 6.0107115212329223e+00 1.1514268978059999e+01 3.4799534007960062e+00 -1 0 -2
50 2 6.9938421757303999e+00 1.4560582222366506e+01 3.8362305398085419e+00 2 0 0
223 1 6.6176835044107882e+00 1.1648904786040298e+01 9.7823462603535227e-01 -1 0 0
41 2 6.0299682661750591e+00 1.2445531743242471e+01 3.7888396703154430e+00 -1 0 -2
65 2 7.9156902985619375e+00 1.4909577203162467e+01 3.2575563408154579e-01 0 0 0
225 2 6.6286425474045219e+00 1.2565692787283561e+01 6.2354565770195203e-01 -1 0 0
51 2 5.4040508476486071e+00 1.4661417445732434e+01 4.0727478658033966e+00 2 0 0
49 1 6.1688234276041083e+00 1.4104279442325430e+01 4.2440711974076724e+00 2 0 0
147 2 5.7647296928618346e+00 1.4609479341207848e+01 4.7967789002771022e-01 1 -2 0
149 2 5.0093716027872377e+00 1.0747101939457510e+01 4.2759042712421191e-01 -2 -1 1
145 1 6.3697063272201406e+00 1.3977895378996447e+01 5.1299673320137629e-03 1 -2 0
186 2 1.1928260425563387e+01 1.0757643196139501e+01 2.4318308473586897e-01 -1 -1 1
226 1 1.3083299698509748e+01 1.5365498445136277e+01 3.6148355088135209e+00 -1 0 1
39 2 1.3045228133906553e+01 1.5286892991566754e+01 1.7702248650521699e+00 2 -2 -1
37 1 1.3054518250241131e+01 1.5441676752699587e+01 7.9621533852099913e-01 2 -2 -1
122 2 9.7621805300797977e+00 1.1250431079390264e+01 5.2991801135703864e-01 2 0 3
167 2 1.1289209412122856e+01 1.0896612202729832e+01 3.8608219936974808e+00 1 0 0
168 2 1.0487789239306494e+01 1.2227628602747055e+01 3.8477024542171887e+00 1 0 0
166 1 1.0413122236568348e+01 1.1281485280339341e+01 3.5448840771009844e+00 1 0 0
155 2 1.1720742228834281e+01 1.4389100203781805e+01 4.0285271445129718e+00 0 -1 0
121 1 1.0580806401062164e+01 1.1521672217348664e+01 1.0060396724886611e+00 2 0 3
156 2 1.0140553961951753e+01 1.4391840424719259e+01 3.6391089721606056e+00 0 -1 0
123 2 1.0522882886506359e+01 1.1385573638520741e+01 1.9998089121137901e+00 2 0 3
154 1 1.0893104704546577e+01 1.3862553364153268e+01 4.1415496847925777e+00 0 -1 0
272 2 1.0101211100072373e+01 1.4328008175687488e+01 2.3527922976404470e-01 0 -1 1
38 2 1.2175555978186699e+01 1.4988229116844838e+01 5.7630026731196016e-01 2 -2 -1
273 2 1.0785955637869730e+01 1.2993710071897443e+01 5.5704603296512911e-01 0 -1 1
271 1 1.0872150280983062e+01 1.3855938864604219e+01 -4.1917142868896917e-03 0 -1 1
118 1 1.6695487056697689e+00 3.3916104638546236e+00 8.2785069014525057e+00 -1 0 2
218 2 3.0826072360239865e+00 2.6458909641906794e+00 7.0804076885521559e+00 -1 0 0
119 2 9.5352182188202017e-01 2.9624230484457712e+00 7.7954762719025279e+00 -1 0 2
120 2 1.7092839702359715e+00 3.1903757468455161e+00 9.2093005027800192e+00 -1 0 2
219 2 4.2461852671406310e+00 2.3671128474406680e+00 5.9945228396354402e+00 -1 0 0
217 1 4.0314990912671478e+00 2.3510535348099748e+00 6.8959790792954045e+00 -1 0 0
221 2 4.1799856047318062e+00 4.9018593637823515e-01 7.7518465329819657e+00 -3 2 -1
12 2 1.4976740904677948e+00 5.1017625153567989e+00 7.6777241710400226e+00 -1 2 0
242 2 4.8551573518529825e+00 3.6758187629623320e+00 7.7416709070828951e+00 1 1 0
241 1 5.7145580005955905e+00 4.0203399260766979e+00 8.0899435466338936e+00 1 1 0
255 2 7.4582400319070699e+00 2.9627957590713341e+00 7.3122898539622883e+00 -1 1 0
243 2 5.7004080127488095e+00 4.9233545686678211e+00 7.7572759607951776e+00 1 1 0
8 2 8.3749868141104127e+00 2.4828999114307457e+00 5.0116891157362362e+00 0 -1 0
253 1 8.3234268105255005e+00 2.6271739592304408e+00 7.0009744321787650e+00 -1 1 0
254 2 8.2686489578741735e+00 1.7417424660529386e+00 7.3690648136415406e+00 -1 1 0
70 1 8.3514569763853750e+00 3.8676045001324155e-02 8.1524769055734971e+00 -2 0 -2
71 2 8.5021410997576652e+00 -2.6977971643381338e-02 9.0759943760111028e+00 -2 0 -2
144 2 1.2807498175009405e+01 2.3682710952011301e+00 5.2087896232727635e+00 1 -1 -2
52 1 1.2552636654609657e+01 2.2519138913025447e+00 6.9644545229278503e+00 1 0 -1
54 2 1.2762038653789002e+01 1.5208199824286031e+00 7.5905011269997633e+00 1 0 -1
139 1 1.0388218166276685e+01 3.8111611409012940e+00 8.2615427992883568e+00 -1 0 -3
53 2 1.1878853562850578e+01 2.7762180674979486e+00 7.4915961338084580e+00 1 0 -1
140 2 9.5818923230846931e+00 3.3931228002647487e+00 7.8743466204732542e+00 -1 0 -3
141 2 1.0461220561380244e+01 4.6993967777183761e+00 7.8243779933671309e+00 -1 0 -3
86 2 1.2720381132792971e+01 -3.1743845510295188e-02 9.3509161829168423e+00 2 3 1
75 2 1.7601539634307792e+00 5.9066752782174410e+00 5.8169528365398833e+00 0 1 -1
10 1 1.5752095999192239e+00 5.9863496661702200e+00 7.3607643996140792e+00 -1 2 0
11 2 2.4173432567172637e+00 6.4699591986916030e+00 7.7210911905252289e+00 -1 2 0
101 2 3.6249504072067049e+00 8.7207640117519833e+00 7.6283768497845434e+00 2 0 0
102 2 3.7769442633376262e+00 7.6855870201691259e+00 8.8234646172631788e+00 2 0 0
100 1 3.5419903710101086e+00 7.6873017246789512e+00 7.8912406221824769e+00 2 0 0
157 1 3.4199308117175415e+00 1.0315592051903129e+01 7.1941637878609956e+00 1 -1 -2
201 2 3.9228937338612502e-01 7.2463041413241944e+00 7.7884258048157102e+00 2 -1 0
159 2 3.5286728234173794e+00 1.0337608029444690e+01 6.2127160846275302e+00 1 -1 -2
3 2 5.9991739001019946e+00 6.4091524199932115e+00 6.2229595622297067e+00 -1 -1 0
1 1 5.8713205478529993e+00 6.5553156292168167e+00 7.2207047536906082e+00 -1 -1 0
2 2 5.0590669043918242e+00 7.0701856959818663e+00 7.1787726239936482e+00 -1 -1 0
197 2 7.4666708009830538e+00 7.4292462350636406e+00 8.0236284494392329e+00 -1 0 2
33 2 8.1518595969271335e+00 1.0104699258848960e+01 5.4063048024202844e+00 -2 1 1
28 1 8.2018598282945607e+00 1.0390729087946623e+01 7.1252706173183258e+00 1 -1 -1
198 2 8.1582899498486174e+00 8.8863719117838880e+00 8.0860517655872517e+00 -1 0 2
196 1 8.2338721464442415e+00 7.9486032341973738e+00 8.3831972112654523e+00 -1 0 2
199 1 1.2843737412657566e+01 7.6602297223218736e+00 8.2284106506041752e+00 1 -1 0
200 2 1.2700257779225563e+01 8.5544697457592420e+00 7.7810141284413312e+00 1 -1 0
178 1 1.2529238609121212e+01 1.0067621236879797e+01 7.0532778305361932e+00 -1 3 -2
113 2 1.0542063808400524e+01 6.0882457921658535e+00 5.4168814352921260e+00 -1 0 2
15 2 9.7933941208962558e+00 7.0329420743361615e+00 7.5874713357455095e+00 -1 -2 1
13 1 1.0539548088223306e+01 6.4587472433489372e+00 7.3653178928280552e+00 -1 -2 1
14 2 1.1410453329256358e+01 6.9003372802487126e+00 7.6220077236397081e+00 -1 -2 1
236 2 1.2867881624188293e+01 1.0082922286306490e+01 5.3592958160154094e+00 2 2 2
158 2 2.7091969419293607e+00 1.0942773005174754e+01 7.4643831574662505e+00 1 -1 -2
180 2 6.8299481587722255e-02 1.0557823796251407e+01 7.4499527776099201e+00 0 3 -2
17 2 1.5502650348895404e+00 1.3919754478246301e+01 5.4469715811563910e+00 -3 -2 1
63 2 1.3486871431630885e+00 1.2597478627321244e+01 7.9866971020850457e+00 0 -1 -2
61 1 1.3606665340366679e+00 1.1662292648462962e+01 8.2746301206735868e+00 0 -1 -2
103 1 1.5869761093219235e+00 1.4194532247454182e+01 7.5919037790143591e+00 -2 2 2
104 2 2.4720603809222332e+00 1.4702846031378195e+01 7.8391780935867166e+00 -2 2 2
105 2 9.2643112449130693e-01 1.4782382745858520e+01 7.8993972648071011e+00 -2 2 2
62 2 1.1597345678313882e+00 1.1736750952798626e+01 9.2120112958956302e+00 0 -1 -2
220 1 4.1882113219259010e+00 1.5377018444962635e+01 8.1817105622598376e+00 -3 1 -1
30 2 7.3478096798188348e+00 1.0805775949717759e+01 7.3767316439539066e+00 1 -1 -1
222 2 4.8554829220596538e+00 1.4802217828955426e+01 7.6575724714939959e+00 -3 1 -1
195 2 4.9683935577916953e+00 1.0932214575613205e+01 7.6596414496523897e+00 -1 1 0
72 2 7.6699697940087956e+00 1.5158494442925612e+01 7.9679534700569619e+00 -2 -1 -2
193 1 5.8954642598694029e+00 1.1261832484750281e+01 7.9623910507462714e+00 -1 1 0
248 2 6.2807092078224542e+00 1.4203763630618196e+01 6.0803866097050037e+00 2 0 2
247 1 6.2133180450206078e+00 1.4046492447300629e+01 7.0450986045690307e+00 2 0 2
249 2 6.1987064158340148e+00 1.3051761275642981e+01 7.1294634540158359e+00 2 0 2
194 2 5.8054108621610503e+00 1.1536942979463172e+01 8.9024797875633865e+00 -1 1 0
29 2 8.9682631279404728e+00 1.0890930532878960e+01 7.5151442290924573e+00 1 -1 -1
85 1 1.2755202990906543e+01 1.5655147856361397e+01 8.3842196474053701e+00 2 2 1
179 2 1.1768695193761500e+01 1.0606528045103611e+01 7.3668586836959022e+00 -1 3 -2
87 2 1.1967133284188522e+01 1.5084133048193705e+01 8.1471706212366808e+00 2 2 1
266 2 1.0320447122351812e+01 1.1802537167498480e+01 9.2091321559517585e+00 -3 -1 0
24 2 9.7284347089195951e+00 1.4911558325164707e+01 7.5905754623160684e+00 -2 -2 -1
23 2 1.0376886333401753e+01 1.4678278553618172e+01 6.3685664312235319e+00 -2 -2 -1
22 1 1.0472527490906991e+01 1.4334472919376465e+01 7.2708248561051745e+00 -2 -2 -1
265 1 1.0354024694263620e+01 1.1576620344354065e+01 8.2391911423687194e+00 -3 -1 0
267 2 1.0564196922250501e+01 1.2460363292663700e+01 7.8349516239003876e+00 -3 -1 0
262 1 4.3386576885466468e+00 2.0071885692096783e+00 1.4520046856256076e+01 -1 0 1
55 1 1.7425186022412036e+00 3.3835402086199293e+00 1.0969899743415944e+01 0 1 1
57 2 9.7062336218841128e-01 2.8852289361693093e+00 1.1281306167943411e+01 0 1 1
261 2 3.2220303063743434e+00 2.4208373561544647e+00 1.1343862110317183e+01 0 1 -2
56 2 1.6316339279186181e+00 4.2395893092786761e+00 1.1332144074114014e+01 0 1 1
264 2 4.2165534065341319e+00 2.1142293752633283e+00 1.3547616060755967e+01 -1 0 1
259 1 4.0092978478002150e+00 2.0479138716266738e+00 1.1711733412353981e+01 0 1 -2
152 2 4.2355179756389925e+00 5.2656491732276678e-01 1.1163301643199475e+01 -1 1 1
134 2 5.8534221431027706e+00 3.5848702740602323e+00 9.8299650475289564e+00 0 0 -1
136 1 8.1805831101621340e+00 2.8418487711348339e+00 1.4215410434427680e+01 2 0 0
260 2 4.8603566444194817e+00 2.5499122289418126e+00 1.1398960166717687e+01 0 1 -2
77 2 7.7464720084815859e+00 2.9352045380779170e+00 1.1225550832345348e+01 -4 0 0
133 1 5.9872429432678969e+00 3.3885118981228186e+00 1.0749533419204788e+01 0 0 -1
135 2 5.9919276031411375e+00 4.2904940661780708e+00 1.1172933088168852e+01 0 0 -1
137 2 8.3940802474198257e+00 2.7959903578862946e+00 1.3218787926673631e+01 2 0 0
76 1 8.5029713571635632e+00 2.3789155625977059e+00 1.1635367607780676e+01 -4 0 0
209 2 8.2159246874898866e+00 2.9076779958832882e-01 1.1444137881183311e+01 -1 3 -2
80 2 1.0504860750450648e+01 3.8213764947167550e+00 9.7992098173315885e+00 -2 1 3
229 1 1.2751526912140223e+01 2.5898225450544730e+00 1.4641072408829231e+01 -3 1 -1
287 2 1.2698115878476312e+01 1.2215389239302004e+00 1.1595667031536973e+01 0 3 -2
286 1 1.2819681669558262e+01 2.1944170457797716e+00 1.1842409237484588e+01 0 3 -2
288 2 1.2710916259561737e+01 2.3439551592739258e+00 1.2782028799104525e+01 0 3 -2
78 2 9.2576078677143112e+00 2.9108273974720120e+00 1.1416490614971826e+01 -4 0 0
79 1 1.0618584367368666e+01 3.6677763077237366e+00 1.0751924979405240e+01 -2 1 3
81 2 1.1389085369445647e+01 3.1987631441089812e+00 1.1052505343789143e+01 -2 1 3
109 1 1.6613114530452635e+00 6.2390859295441956e+00 1.4615743900518641e+01 0 1 0
238 1 1.8114402290115721e+00 6.2583303810028834e+00 1.1856481631846250e+01 -1 1 0
239 2 1.7045241717666446e+00 6.3090083503144179e+00 1.2860664501433364e+01 -1 1 0
240 2 2.7436155311659478e+00 6.6464722371599265e+00 1.1610916656886310e+01 -1 1 0
251 2 3.8200334925032253e+00 8.6934811606158373e+00 1.1179885656706359e+01 1 0 1
116 2 2.8607513675893870e-01 7.3221873620273046e+00 1.1283760046517569e+01 -2 -1 0
250 1 3.9280915499624487e+00 7.8656061432843698e+00 1.0693872610643636e+01 1 0 1
95 2 8.1622375232937596e+00 7.8342710201516219e+00 1.0069561534124807e+01 -1 -2 0
268 1 6.4491201488941243e+00 6.3825144256589006e+00 1.4691260164058848e+01 0 -2 1
252 2 4.8495091301024082e+00 7.5915350919082245e+00 1.0863840237526128e+01 1 0 1
215 2 6.7731332333144172e+00 6.5865419008626551e+00 1.1574881432107746e+01 0 2 2
214 1 6.0515441521780371e+00 6.0627995273423556e+00 1.1891242430870488e+01 0 2 2
216 2 6.3106783806744868e+00 6.1720812052036935e+00 1.2822817809729878e+01 0 2 2
83 2 8.1212174694958481e+00 9.4270471263154469e+00 1.1519293331548718e+01 0 -1 1
94 1 8.2321535796152361e+00 7.7961468438494386e+00 1.1086462391627903e+01 -1 -2 0
82 1 8.0513019304021931e+00 1.0362559425229440e+01 1.1741772564786402e+01 0 -1 1
191 2 8.4764744727291088e+00 1.0394695669325070e+01 1.3303972611161466e+01 1 2 -3
173 2 9.8327948463623986e+00 7.0814995812305206e+00 1.4659192996649258e+01 -1 0 -1
117 2 1.2752608252155238e+01 7.7110354919373583e+00 9.9660268458853789e+00 -3 -1 0
96 2 9.1623845181860570e+00 7.3240402936405999e+00 1.1204796337311871e+01 -1 -2 0
115 1 1.2714224295279532e+01 7.7293950777668670e+00 1.0993347184107220e+01 -3 -1 0
184 1 1.2629988475096377e+01 1.0285802619498952e+01 1.4388875695985444e+01 -1 -1 0
172 1 1.0597719429099662e+01 6.5577921467315425e+00 1.4368737202989788e+01 -1 0 -1
246 2 1.0385262071418973e+01 5.3476089463361003e+00 1.1237444161749675e+01 1 -2 0
127 1 1.2213916704683713e+01 1.0239481431420437e+01 1.1720456663362354e+01 1 -1 0
128 2 1.2301954940266089e+01 9.3612752026004316e+00 1.1327570901444899e+01 1 -1 0
174 2 1.0624408643420846e+01 6.7213664044151624e+00 1.3405768007636579e+01 -1 0 -1
245 2 1.1332724936240840e+01 6.5910184658918372e+00 1.1205823634475424e+01 1 -2 0
244 1 1.0394178195449349e+01 6.3234919214865855e+00 1.1385456838315109e+01 1 -2 0
129 2 1.1784085498804801e+01 9.9577273464900529e+00 1.2512554540322661e+01 1 -1 0
6 2 1.9199575433330391e+00 1.2490147040960794e+01 1.4666908341767511e+01 -2 -1 1
5 2 1.0651276778126915e+00 1.1154911541321233e+01 1.4507953107628806e+01 -2 -1 1
43 1 3.8879652182191329e+00 1.0503984960359858e+01 1.1946290111316165e+01 2 2 0
45 2 3.8991040435117372e+00 1.0526414633225052e+01 1.2922995771598643e+01 2 2 0
211 1 2.0958478174631527e+00 1.4425475232812300e+01 1.4576711959305440e+01 1 -1 0
44 2 3.0196694469501892e+00 1.0811720808262836e+01 1.1575617162361098e+01 2 2 0
164 2 7.2652495293901698e-01 1.1387465804288139e+01 1.1604424656078582e+01 0 0 -3
163 1 1.4885189046368303e+00 1.1736364113786500e+01 1.1119470205859223e+01 0 0 -3
165 2 1.7255903675386248e+00 1.2661842508517859e+01 1.1390952801721717e+01 0 0 -3
59 2 2.7195135017697645e+00 1.4717562714122955e+01 1.1471552565290880e+01 -1 -2 -1
60 2 2.1913932430619218e+00 1.4419984609231753e+01 1.3046744928276320e+01 -1 -2 -1
58 1 2.0000398338755478e+00 1.4354743061646181e+01 1.2065914209978146e+01 -1 -2 -1
207 2 4.1060579667957198e-01 1.4909795939574151e+01 1.1329040761129429e+01 3 -2 -3
151 1 4.2070080793807136e+00 1.5357599417661500e+01 1.0817732672552511e+01 -1 0 1
192 2 7.7948484955191599e+00 1.0873783759420961e+01 1.4633589624719670e+01 1 2 -3
190 1 8.6083655584222889e+00 1.0524257664231795e+01 1.4274824851873651e+01 1 2 -3
153 2 4.4067468933817420e+00 1.5433680053246949e+01 9.8274232826309245e+00 -1 0 1
84 2 7.1775657771473647e+00 1.0693716885622512e+01 1.1415456275930113e+01 0 -1 1
208 1 8.4837483741406956e+00 1.5153411637430663e+01 1.1281983547340332e+01 -1 2 -2
278 2 5.0999185541634446e+00 1.1441573949570207e+01 1.1080809183171112e+01 1 0 1
131 2 5.6437756769138083e+00 1.4863934676201014e+01 1.1687663297024674e+01 2 0 2
132 2 7.1828203288740360e+00 1.4370907572228177e+01 1.1985807827422361e+01 2 0 2
130 1 6.2058964377633066e+00 1.4196221353092303e+01 1.2212615184856386e+01 2 0 2
279 2 5.8312392236935731e+00 1.2735561716831345e+01 1.1012630782774114e+01 1 0 1
277 1 5.8362576303793903e+00 1.1816306412083197e+01 1.0605806764549627e+01 1 0 1
146 2 6.2291275165740219e+00 1.4091173291586850e+01 1.3711786613314860e+01 1 -2 -1
205 1 1.2875007269657223e+01 1.5403660519032954e+01 1.1036121478933840e+01 2 -2 -3
210 2 9.4183510086921043e+00 1.5029859792677428e+01 1.1586874964619842e+01 -1 2 -2
182 2 1.0964271041144825e+01 1.1151604393245886e+01 1.1155452984426853e+01 0 -1 1
206 2 1.2111835777337907e+01 1.4896770563002576e+01 1.1437712470690593e+01 2 -2 -3
183 2 9.5057772401655729e+00 1.1604014575838292e+01 1.1216685196853380e+01 0 -1 1
181 1 1.0343056786667820e+01 1.1935577693757855e+01 1.0911062420631772e+01 0 -1 1
20 2 1.0721050885477833e+01 1.3411913588996129e+01 1.1784991148068100e+01 0 -2 0
19 1 1.0769755045180970e+01 1.4355621066466654e+01 1.2058966187836079e+01 0 -2 0
21 2 1.0844541763581111e+01 1.4240745289008139e+01 1.3021951263388134e+01 0 -2 0

Velocities

282 -1.5807328018357703e-01 -1.8499838942828355e+01 1.7058214109619700e+00
35 -1.2733184755731774e+01 -1.0419712313711621e+01 2.2332127900610189e+01
34 -6.2877765028197183e+00 8.9485769768341772e+00 -5.2751766593565321e+00
67 2.1072961599661406e+00 -2.9857901384129546e+00 1.1470912353248912e+00
36 -2.7219696639044290e+01 1.1207868829214107e+01 -9.4250229380042132e+00
204 -3.2516177278880560e+00 8.7254194685214479e+00 4.0902739022429841e+01
108 1.1582185122073813e+01 1.2524873565096808e+01 -1.2337037563289575e+01
69 -2.3946267415762698e+01 -2.7795181046381703e+01 2.9468334512010255e+01
143 -1.5864961662081475e+01 2.7808980423420010e+01 1.6973915183101088e+01
231 -3.8389729459002586e+00 3.5750806819386483e-01 -3.8346414497462984e+00
68 6.5756264627662580e+00 1.0326604458907669e+01 1.7663406659905931e+00
280 3.0112826841244136e-02 -2.4355070857445535e-01 2.7135252129234910e+00
281 -2.7917838750457378e+01 -1.2037454832181876e+01 -9.0543754003188273e+00
161 -1.2929687401353142e+01 1.1384588057664274e+01 4.4137633483455518e+00
160 4.4565771180403315e+00 5.5642443613646533e+00 -2.4451311246095169e+00
162 -3.6408778730409153e+00 6.6502414766884757e+00 -1.1737416027442748e+01
256 2.5698122874316243e-01 -2.3601040198984533e+00 -6.9532558319589721e-01
66 -1.2571756866293322e+01 -1.4989466715403479e+01 -2.7925895267104362e+01
258 -7.4177197546798785e+00 -1.4525154985839952e+01 -2.6069206402785593e+01
98 1.6687172354852351e+01 -1.2394675097485999e+01 -7.4371898664587297e+00
257 -2.1026804124367217e+01 1.9042872909170492e+00 -2.2893185885464092e+01
263 -6.6757597525253329e+00 2.1667068143415637e+01 -1.7681971876916909e+00
7 6.1510659429113037e+00 -3.2364327636545673e+00 2.3575921289362252e+00
142 2.7834681640028394e+00 -2.4163458530828814e+00 1.0186779111344388e+00
230 8.1951446089177207e+00 -7.0695348838999150e+00 1.1190009784944888e+01
228 -2.3433052429501384e+01 -2.3770868397466248e+01 -1.4861838003086580e+01
9 1.3143860816199766e+01 1.4786036816260127e+01 -2.0529683707326843e+01
176 -6.5209518376097213e+00 -1.2671751053738038e+00 -1.2197003533122658e+01
177 -4.6524117873861961e+00 -1.0689282372115958e+00 8.7172943553106663e-01
175 -7.8046867784495388e-01 -2.3906412110456867e+00 1.6638121427673249e+00
274 4.1220376836059485e+00 -5.8925518580732144e+00 5.4375535111762083e+00
276 -9.9492799309788875e+00 1.1111224230139138e+01 2.3643682131547244e+01
275 1.2989654142471029e+01 -9.5388659838995551e+00 -6.5649984465600673e+00
114 2.1531357296438607e+01 -4.0747424185993175e+00 6.4775093771469505e+00
138 -1.4692851390732740e+01 1.5580388049855506e+01 -2.2242747998329397e+00
74 -5.0192103097011422e+00 -6.3936392495263012e+00 -2.4208821119783881e+01
73 -2.2076828978305690e-02 3.9707926019881854e+00 6.9691734154147875e+00
188 -1.4506477933747417e+01 1.0982821979037421e+01 -1.2539986155318445e+01
25 -1.9327285473211264e+00 3.6298521993010899e+00 6.0297324905657623e+00
27 -1.6206257427358480e+01 3.1755494176620058e+01 -2.7945355046138854e+01
124 -4.9327878974797104e+00 -7.4979713155593295e+00 3.9924689685956061e+00
187 5.2542268995582146e+00 -1.7124331524916134e+00 -1.0033445251984546e+01
189 -2.1131735963524328e+01 1.4866435323502042e+01 -3.5809365895980250e+00
111 2.7648643349975810e+00 -6.8314398822575155e+00 -1.9156824352740411e+01
110 -1.9427973608587944e+01 -8.3240760326404892e+00 1.1674748142569900e+01
284 -4.3716246943666377e+00 -3.6496532918889946e-01 -4.5733069201649066e+00
148 1.0830065780785589e+00 -1.0487065495793980e+01 -2.3106031048472775e+00
170 1.3483097642079334e+01 7.9992683858934006e+00 2.1982799427882354e+00
26 1.1838627737812516e+01 -2.2380575417211510e+01 -1.1591743735866915e+01
171 1.2631014755075388e+01 8.8314665414630884e+00 3.1321742105342008e+00
169 -5.5849325180604426e-01 -2.1686251798118705e-01 6.3044696920724732e+00
233 1.4125840956904796e+01 4.6954028230237741e+00 -5.0903522258536036e+00
31 1.0963557996016398e+01 -6.8041634981142058e+00 4.4434906644131553e+00
89 2.4728351706667500e+01 -2.7046721087977179e+01 2.2928884924472115e+00
90 -1.0718754046511318e+01 1.5862092005671119e+01 7.1351959475481470e+00
270 -2.6852737015945856e+00 9.9927095647859563e+00 -3.0896167665128056e+00
88 -7.5289486596379716e+00 -3.2341414056570681e+00 -6.8706566457901264e-01
269 -1.9461885069999258e+01 -8.8962304297261205e+00 2.1232627097904643e+01
232 3.7416469835197379e+00 -7.4148659797109218e-01 6.0368541315220501e+00
185 -2.3137307228869912e+00 -1.2247498096049501e+01 6.4998721546402232e+00
234 -1.5083382262213064e+01 1.3869678950136608e+00 -7.3559803387273872e+00
283 1.7348857536849982e+00 -1.0142526673108576e+00 -3.2541973336377992e+00
46 5.5698066290287240e+00 1.7030929702675708e+00 1.8665307090461176e+00
48 -1.8502131127097101e+01 -7.6284731081801338e+00 2.3177679995603096e+01
237 -1.7003840298167898e+01 1.4124427871842077e+01 -1.7860274013018532e+01
285 9.7132912968617511e+00 7.5112922684367831e+00 -5.0501922675797868e+00
47 1.3865311005279249e+01 3.3978747183481026e+01 -3.0896402545882001e+01
112 2.2643111980902249e+00 2.7153647874784133e+00 -2.7064404165219678e+00
235 4.1332663838609029e+00 -1.9259781209686330e-01 3.7197826229023074e+00
32 -1.7013231108537064e+00 2.8887122113600388e+00 2.8909686307902955e+01
203 -2.2778684991262857e+01 -7.1272718966386233e+00 1.7096632238048851e+01
202 4.9393095438977735e-01 7.1030367458550248e-01 -3.2541228537517911e-02
106 -3.6035173448023001e+00 1.8836691492827895e+00 -4.7340492686631119e+00
150 3.5898579808870132e+01 -3.9248647119316660e-01 -3.4843347834209020e+01
125 -3.4583400332598025e+01 -3.5546247531402768e+00 5.9794724898153921e+00
107 -1.4724948697868838e+01 -1.4704274442667396e+01 -1.4541241781195022e+00
92 4.3049776414244384e+01 1.3189755861395685e+01 5.8977726089297473e+00
91 2.5709919634075633e+00 2.0972933729548524e+00 -2.5101110992274540e+00
93 -6.0303374375398766e+00 1.1117706567885573e+01 -1.9221671600413647e+01
4 -5.4096301882586770e+00 -7.5380312365249429e+00 7.0142445212311673e+00
18 -1.2462706589210541e+01 -4.1012804809123944e+00 -2.7969944914708055e+01
212 -1.2885368645914584e+01 -2.6973172331314409e+01 -3.1070106147931085e+01