LAMMPS data file via write_data, version 7 Aug 2019, timestep = 4000000

288 atoms
2 atom types

1.4702283883759559e-01 1.3025222661162601e+01 xlo xhi
1.7520404691682856e-01 1.5521885853087090e+01 ylo yhi
1.6362762496812699e-01 1.4496293675028699e+01 zlo zhi

Masses

1 15.9994
2 1.00794

Atoms # atomic

144 2 2.7752769331607507e+00 2.2307630380142895e+00 7.2175932333914739e-01 4 1 2
86 2 1.8464295989629089e+00 3.1497526319503786e+00 2.3023854329666769e+00 -4 0 0
85 1 1.7810487263110322e+00 3.4986496555004534e+00 3.2260704895841470e+00 -4 0 0
87 2 2.5974959741510886e+00 3.3625949337589098e+00 3.6804901896429287e+00 -4 0 0
107 2 2.6845076032859621e+00 5.8184757407071719e-01 4.8153488013209458e+00 -2 1 4
106 1 3.6166385288563445e+00 9.2334501529443458e-01 4.7657584514863558e+00 -2 1 4
54 2 4.4296504266493546e+00 2.6543018317419373e+00 4.4546634018306399e+00 -6 1 1
142 1 2.0386474306497395e+00 2.8617854999866332e+00 6.0952660306047213e-01 4 1 2
52 1 4.2877342917251937e+00 3.6255566559936105e+00 4.2436950188688911e+00 -6 1 1
108 2 4.0867380408404799e+00 3.1893532732552121e-01 4.2425206762178833e+00 -2 1 4
56 2 7.0993809124081197e-01 4.9156363140755577e+00 2.5489836521162612e+00 -1 -2 -2
63 2 2.1402220453269933e+00 5.1079314924501960e+00 4.4571070641298816e+00 -1 2 -2
178 1 4.0663427569146187e+00 1.1200202871409677e+00 2.8398160360723262e-01 1 2 -3
143 2 2.4057306241225214e+00 3.6253639971044143e+00 1.8370038599800298e-01 4 1 2
53 2 4.8787302983769569e+00 3.9965624796940045e+00 3.5253026084792354e+00 -6 1 1
180 2 4.5116315210274927e+00 6.6977933494896469e-01 1.0886121509024118e+00 1 2 -3
220 1 7.1998462245036103e+00 2.5577472844846949e+00 3.4524970738259309e+00 0 0 -1
222 2 6.6521364246795747e+00 1.8293172792077617e+00 3.0834432693109042e+00 0 0 -1
221 2 6.9924022418609511e+00 3.3219541173012654e+00 2.9656140982436909e+00 0 0 -1
152 2 6.0243218774925236e+00 4.9747810230373197e+00 1.4464204720610065e+00 -2 1 0
151 1 5.9040479912914297e+00 4.8994123150190259e+00 2.4538957569031048e+00 -2 1 0
274 1 5.7581104828190339e+00 2.8674359199964583e-01 2.4159767510276393e+00 2 0 -2
110 2 9.3360130574556131e+00 2.0932823055123695e+00 3.2026675466587320e+00 1 0 -2
215 2 1.1285248610485489e+01 3.9988867031855762e+00 1.5153893937323537e+00 2 -1 -1
214 1 1.0866232479040868e+01 3.1813914705246353e+00 1.2769927858552201e+00 2 -1 -1
216 2 1.0156921239197125e+01 3.3835230731566144e+00 5.5574424243090137e-01 2 -1 -1
109 1 1.0091614748292439e+01 1.5744194051315923e+00 3.0815263955098198e+00 1 0 -2
111 2 1.0581517766372446e+01 2.1311020568037824e+00 2.3803103416170641e+00 1 0 -2
92 2 1.2985054947953465e+01 3.7828223229542561e+00 4.6930912270902452e+00 -2 0 1
42 2 1.1061783866313704e+01 1.0295115330315014e+00 4.2248094125189466e+00 -2 1 1
6 2 5.5956534106458777e-01 8.6607585608234405e+00 3.3715322128416694e+00 0 -3 1
4 1 9.1143472908063128e-01 9.3168897622861984e+00 2.7616540482357137e+00 0 -3 1
279 2 2.5393682400139870e+00 1.0115954823889973e+01 3.5184261606079592e+00 4 -1 -3
146 2 4.5900768125263125e-01 7.0661212202048631e+00 4.7941481872259830e+00 3 2 -2
27 2 2.4590776549127034e+00 8.6534296477111354e+00 1.3695464104243384e+00 -3 -1 1
25 1 2.3474734184181916e+00 8.3811806668987092e+00 4.1042669043826535e-01 -3 -1 1
26 2 1.6436643436559113e+00 7.7403349573326370e+00 4.7646549982370717e-01 -3 -1 1
57 2 2.8648649960122824e-01 5.6528852101124034e+00 1.3002417028294078e+00 -1 -2 -2
5 2 2.8500823016155508e-01 9.9604183359044072e+00 2.4396856223799070e+00 0 -3 1
153 2 6.1202939829123277e+00 5.8829285151335275e+00 2.6949286124991962e+00 -2 1 0
136 1 6.6055973023234662e+00 7.3683600303221777e+00 3.1276354167467701e+00 1 1 4
138 2 7.4119779096122809e+00 7.2244136328349384e+00 3.6746468494750570e+00 1 1 4
137 2 6.8453915449386846e+00 8.1563912576389903e+00 2.5491245711793562e+00 1 1 4
78 2 8.1171245418074403e+00 9.9521766631617918e+00 1.5499161998947091e+00 4 -1 4
76 1 7.8793977548481653e+00 8.9620291406086761e+00 1.5208105243065082e+00 4 -1 4
77 2 8.5610262954941163e+00 8.4359722583715975e+00 2.0732979318071063e+00 4 -1 4
244 1 7.9797672127991994e+00 1.0197308058754546e+01 4.7565761313437962e+00 7 0 3
260 2 4.9248109170887409e+00 7.5635948156651462e+00 4.3481820809694840e+00 0 -1 1
55 1 1.2893916025997001e+01 5.5335613281645060e+00 2.2040485772609726e+00 -2 -2 -2
145 1 1.2659864104279293e+01 7.4286958740781861e+00 4.2378695054887983e+00 2 2 -2
147 2 1.2696248074937696e+01 6.8221809392175983e+00 3.4342210484374314e+00 2 2 -2
233 2 9.4454675517226505e+00 6.6615098263091621e+00 4.0444682042439855e+00 2 -3 1
232 1 9.4345885392871160e+00 7.4822991029393764e+00 3.4831185848540995e+00 2 -3 1
234 2 1.0069303511946654e+01 8.0597441578247775e+00 3.9425625489336635e+00 2 -3 1
197 2 1.1405043038575624e+01 8.8903255214006975e+00 4.4782682639312785e+00 0 1 -1
245 2 8.8135242532073264e+00 9.7908425638690399e+00 4.9162544890491713e+00 7 0 3
257 2 1.0735040356301084e+01 1.0243442044253493e+01 1.9605101438661199e+00 5 1 -5
258 2 1.1527618625092014e+01 9.8161382753693456e+00 7.5085363525160553e-01 5 1 -5
277 1 3.2519055066692526e+00 1.0613186279424667e+01 4.0310423969208653e+00 4 -1 -3
278 2 4.0218050848798317e+00 1.0781883292521327e+01 3.4895311796574795e+00 4 -1 -3
169 1 2.6279779181088796e+00 1.3159281445102176e+01 9.7491300434992800e-01 3 1 -3
254 2 1.4108337842240926e+00 1.3388289661921338e+01 4.2929298720759030e+00 -4 -3 -3
253 1 1.1962640479234483e+00 1.2515276741720026e+01 3.9612826455756598e+00 -4 -3 -3
255 2 2.0246890328623559e+00 1.2074249614321690e+01 4.1044925043287943e+00 -4 -3 -3
170 2 2.5688317921248709e+00 1.3298300881023255e+01 1.9806965753380388e+00 3 1 -3
171 2 3.3583558790669770e+00 1.2519585986853402e+01 8.9214085257387798e-01 3 1 -3
17 2 4.3780332071022121e+00 1.3309723907700754e+01 4.5726716425405387e+00 -2 2 0
69 2 8.4313804218001476e-01 1.2868337615175930e+01 6.9305612201190203e-01 2 3 -1
264 2 6.5206728760703774e+00 1.0598697011608571e+01 3.1540473684583996e+00 0 -3 4
262 1 5.6496087296605282e+00 1.0931000135659234e+01 2.8253010111096661e+00 0 -3 4
263 2 5.6454491937796325e+00 1.0946232564247239e+01 1.8657428039539590e+00 0 -3 4
29 2 5.5284015759932510e+00 1.2751925716202665e+01 3.6148064515784978e-01 0 0 2
276 2 6.1144878558103581e+00 1.5236841155039230e+01 1.5987008995081626e+00 2 -1 -2
275 2 5.5679011023611320e+00 1.4879465760175579e+01 2.9525362384496301e+00 2 -1 -2
18 2 4.9820637387739781e+00 1.2786276913462519e+01 3.1714100301006707e+00 -2 2 0
126 2 7.5752908995580395e+00 1.4250769355577335e+01 3.7369999862669101e-01 -1 -3 3
28 1 5.0654773379466977e+00 1.1915084246620458e+01 5.1239418314581109e-01 0 0 2
124 1 6.6322668442723653e+00 1.4279268051639759e+01 2.0956086385259504e-01 -1 -3 3
16 1 4.4866211966684784e+00 1.3553341995606864e+01 3.5951432110944483e+00 -2 2 0
201 2 8.4391869905033694e+00 1.1989927109973976e+01 2.3960921251557510e+00 -1 0 2
256 1 1.1609619450664027e+01 1.0436342467065966e+01 1.4991084558439856e+00 5 1 -5
200 2 9.1427032608715741e+00 1.1673289595985212e+01 1.0089285535595391e+00 -1 0 2
48 2 9.2232524177658881e+00 1.5307002402651566e+01 1.7091471878696352e+00 2 0 2
46 1 9.1103493206661703e+00 1.4471517192883663e+01 1.2151444621363152e+00 2 0 2
199 1 8.9021030145028917e+00 1.1311436121693529e+01 1.8531897103453814e+00 -1 0 2
47 2 9.7633850904037693e+00 1.4571270509489031e+01 5.0725079351627955e-01 2 0 2
67 1 1.2798064858046853e+01 1.2667698104393384e+01 4.8947894205080700e-01 1 3 -1
68 2 1.2505786784919785e+01 1.1946716320876028e+01 1.0415694476749586e+00 1 3 -1
81 2 1.4875102616933293e+00 2.3814771411024975e+00 7.7491357884468526e+00 1 -2 1
79 1 2.1147144849054587e+00 2.8100788561865335e+00 7.1645715608611438e+00 1 -2 1
158 2 3.6440934362648285e+00 2.0059780273099603e+00 7.5219751450281853e+00 2 -1 -1
80 2 1.6325620555469684e+00 3.1802332369115129e+00 6.4141960891695549e+00 1 -2 1
36 2 2.5301488231698968e+00 4.5419581669703977e+00 8.9378906021468900e+00 -1 -4 3
133 1 3.4109374130509242e+00 3.1771604271533943e-01 9.4628091750753711e+00 1 -1 0
103 1 5.5624015309428632e-01 2.3637604487298738e+00 9.5542212035151390e+00 5 0 1
104 2 6.3563317851365664e-01 1.4223515366827897e+00 9.6751447707695295e+00 5 0 1
134 2 4.1246392114282582e+00 7.0393569014788127e-01 8.8928554244528986e+00 1 -1 0
34 1 3.2238805406591347e+00 4.5701333521879048e+00 9.6075355270763652e+00 -1 -4 3
159 2 4.5948570363075678e+00 1.2677318586019057e+00 6.5140724844287616e+00 2 -1 -1
157 1 4.5413640263706903e+00 1.7288491232538943e+00 7.3744421937672699e+00 2 -1 -1
236 2 7.2371563144357616e+00 3.0474224521257760e+00 5.3001917837680219e+00 1 -1 1
235 1 7.4901918514951165e+00 3.7988309827276159e+00 5.8237535987323321e+00 1 -1 1
38 2 8.1922142251630916e+00 3.2016598852685947e+00 7.4825243195188538e+00 -3 1 2
240 2 7.1797642819674312e+00 2.0434608748763852e+00 9.6292531110075092e+00 -5 -1 2
237 2 6.7200845320900493e+00 4.3820996712293798e+00 5.7301880748394316e+00 1 -1 1
32 2 4.7934806703439019e+00 4.7751917677402096e+00 5.6510094087430627e+00 -2 1 0
239 2 5.9626721438359542e+00 1.6957314788037630e+00 8.6102836213671363e+00 -5 -1 2
33 2 5.1851709553258640e+00 5.2354181885808231e+00 7.2007054110412314e+00 -2 1 0
44 2 8.6650261747904942e+00 3.9062904299294710e+00 9.6085014767753130e+00 -4 0 2
90 2 4.7111892177831605e+00 4.9451701560545809e+00 9.1184858753862521e+00 -1 2 -3
89 2 6.0585846405753951e+00 4.2517159171402978e+00 8.7337565818309049e+00 -1 2 -3
88 1 5.6356221609688948e+00 5.0873916576719500e+00 8.7257415457233041e+00 -1 2 -3
238 1 6.2315957943749245e+00 1.9502803057038616e+00 9.4760629215139645e+00 -5 -1 2
40 1 1.1612265989333377e+01 7.5105286713835084e-01 5.0033310736820518e+00 -2 1 1
91 1 1.2194119678487059e+01 3.7100113555148431e+00 5.2633714188194940e+00 -2 0 1
93 2 1.1728236301823383e+01 4.5363147144415823e+00 5.0752298410173289e+00 -2 0 1
41 2 1.1670971088275994e+01 1.5601721162173328e+00 5.4754381557166028e+00 -2 1 1
37 1 8.7419489364737935e+00 2.9751793541520200e+00 8.2923344600932563e+00 -3 1 2
287 2 9.0586803087704837e+00 4.9057858865186654e+00 5.4758311152121886e+00 -1 2 1
39 2 9.7355783036545098e+00 3.0008411941916444e+00 8.0058703910824534e+00 -3 1 2
113 2 1.1792651945159285e+01 2.7973559932129399e+00 8.4815240256899056e+00 -3 0 -2
114 2 1.1602695447367928e+01 3.3993786642001207e+00 6.9313060393897317e+00 -3 0 -2
112 1 1.1281226233261560e+01 3.4235408398612202e+00 7.8861104958022494e+00 -3 0 -2
209 2 1.1817681825821811e+01 5.2549224650874393e+00 8.0656017935601731e+00 -4 0 3
97 1 1.1350646370983675e+01 4.1437083050782275e-01 8.4217112810725201e+00 0 -1 -3
62 2 2.9300244554729074e+00 6.3744035008699296e+00 5.0696418085246222e+00 -1 2 -2
61 1 2.1541576473358823e+00 5.8258414911490961e+00 5.1058097793590109e+00 -1 2 -2
273 2 2.0277908493303833e+00 6.9144293411091899e+00 8.0953061840209948e+00 0 -1 -1
271 1 1.7928429638047514e+00 6.0729175337577121e+00 7.6920855543516202e+00 0 -1 -1
272 2 1.7625172216782146e+00 6.0865474140398854e+00 6.7062250019422267e+00 0 -1 -1
243 2 2.4101622622094618e+00 8.5402266949666608e+00 9.5721287812983604e+00 5 0 1
241 1 3.2070130350803092e+00 8.3775464384164628e+00 9.0362706581070000e+00 5 0 1
242 2 3.1981157215196854e+00 9.0883955337935678e+00 8.3131093324419005e+00 5 0 1
119 2 2.9495013514144302e+00 1.0364605427095716e+01 5.9611565510628362e+00 0 0 -2
118 1 2.8150597797069010e+00 1.0276797936398152e+01 6.9167706576598844e+00 0 0 -2
259 1 4.3245208902264984e+00 7.5082261418095548e+00 5.1049824779166917e+00 0 -1 1
261 2 4.7993562251523469e+00 6.8869604069955095e+00 5.6932865502053316e+00 0 -1 1
31 1 5.2482492656302160e+00 5.4389606845517431e+00 6.2233647797510345e+00 -2 1 0
184 1 8.3397159892518573e+00 8.5696861718889767e+00 8.2978048719253028e+00 -2 -4 0
185 2 8.0779060358708676e+00 7.9383761592547382e+00 8.9816975928171203e+00 -2 -4 0
211 1 6.2556200260604795e+00 9.1871947894992871e+00 6.6568717143162583e+00 4 -2 -3
212 2 6.9148490387965049e+00 8.5583436207834165e+00 6.9653000834519929e+00 4 -2 -3
213 2 5.5627987045439991e+00 8.6575316666114812e+00 6.2341191292723650e+00 4 -2 -3
246 2 7.3879934387270501e+00 9.8131199958380861e+00 5.4550982109575017e+00 7 0 3
286 1 9.8470796039454918e+00 5.4243542259172637e+00 5.1578410902803755e+00 -1 2 1
196 1 1.0906563210682137e+01 9.5355199589863950e+00 4.9993407049593142e+00 0 1 -1
210 2 1.2950858860543487e+01 6.2266735539793485e+00 8.2822156171610359e+00 -4 0 3
186 2 8.8733712034626571e+00 9.2455635496591384e+00 8.7654275603038450e+00 -2 -4 0
198 2 1.0916674288565080e+01 9.0409844184418802e+00 5.8179240312581078e+00 0 1 -1
208 1 1.1984594407230869e+01 6.1869796517163342e+00 8.3903319942134633e+00 -4 0 3
288 2 1.0069428083626121e+01 6.1325063773648649e+00 5.7491861789980359e+00 -1 2 1
149 2 1.1039397753093432e+01 7.1710257420640984e+00 7.5221397370575662e+00 -1 0 1
150 2 9.6404461128222678e+00 7.9894706236490274e+00 7.1234309148058896e+00 -1 0 1
148 1 1.0480358116612269e+01 7.5649385008335512e+00 6.7737254523739745e+00 -1 0 1
189 2 1.2974773500503790e+01 9.5095608289083540e+00 9.1215067535796273e+00 -2 2 3
217 1 1.3219481057197424e+00 1.4921030113291589e+01 5.1328238429233162e+00 2 -3 2
219 2 5.0687096547232502e-01 1.5450941719324614e+01 4.9884100081414182e+00 2 -3 2
120 2 2.4980848929398114e+00 1.1149362391917318e+01 7.1561683967186109e+00 0 0 -2
218 2 1.4010341919216052e+00 1.4865531553773781e+01 6.1289678585359502e+00 2 -3 2
160 1 1.2280916610591817e+00 1.4900890080663590e+01 7.8544918931051164e+00 -1 -3 2
162 2 9.9828871231085214e-01 1.3976034307141267e+01 8.0501905746930493e+00 -1 -3 2
161 2 1.8889388958254347e+00 1.5152353448688757e+01 8.5462615096525170e+00 -1 -3 2
202 1 1.0552488297859632e+00 1.2381596091662066e+01 8.7096851083521596e+00 1 -2 3
204 2 3.9038792449401072e-01 1.1749492087999403e+01 8.2802445960431701e+00 1 -2 3
203 2 1.7982147452200026e+00 1.1845293871401230e+01 9.0757417157385820e+00 1 -2 3
8 2 4.1617507364387434e+00 1.1535307778565427e+01 9.1541322018943383e+00 0 4 2
282 2 3.9116054530995514e+00 1.3977646129436680e+01 6.6826494888891448e+00 -5 0 1
280 1 3.9746145605721344e+00 1.3128354649998835e+01 6.2388189370283440e+00 -5 0 1
281 2 4.5430491678384435e+00 1.2540437440742924e+01 6.8220720892929743e+00 -5 0 1
100 1 5.5325283383397492e+00 1.1481004413148668e+01 7.8944759783018430e+00 2 1 2
101 2 5.8725718275151300e+00 1.0656399673176438e+01 7.3942327820207607e+00 2 1 2
102 2 6.4232365777347109e+00 1.1804158033540258e+01 8.3326646153883601e+00 2 1 2
176 2 8.2588272063658970e+00 1.3030675356679831e+01 8.3105569890284627e+00 -2 -4 -2
175 1 8.2224586277269083e+00 1.2345102324845001e+01 8.9910043669528186e+00 -2 -4 -2
65 2 8.4641786499576135e+00 1.3844042217795375e+01 6.3067483299464655e+00 -1 -2 0
64 1 7.5934630563303145e+00 1.3459789673482135e+01 6.5883506435699442e+00 -1 -2 0
66 2 7.4541162035580788e+00 1.2717733094138705e+01 6.0007301556645061e+00 -1 -2 0
95 2 1.0994406552795486e+01 1.3414979786902656e+01 5.9851843430661376e+00 5 0 3
96 2 1.0619021784774180e+01 1.4874294959321832e+01 5.8111687202461022e+00 5 0 3
20 2 1.1583828774629108e+01 1.1234829769094373e+01 5.2192746990511614e+00 -5 1 0
19 1 1.1819279577487922e+01 1.2121808295086725e+01 5.5871305329358636e+00 -5 1 0
270 2 1.1995779706663914e+01 1.1357618711980619e+01 7.0292282252701925e+00 0 1 -1
268 1 1.2057847117402787e+01 1.0733522975228569e+01 7.8288454073267983e+00 0 1 -1
99 2 1.2278299612711326e+01 1.5428323844353788e+01 8.2156883340179157e+00 0 -2 -3
94 1 1.0385475610577391e+01 1.4092840492334517e+01 6.3524213377811485e+00 5 0 3
98 2 1.0884765753363332e+01 1.5253192475496336e+01 7.7825486800140009e+00 0 -2 -3
283 1 9.9273871193225744e+00 1.0511983204479584e+01 9.3687763141093061e+00 0 -1 1
21 2 1.2745848530745882e+01 1.2241400637023281e+01 5.1585910346957293e+00 -5 1 0
269 2 1.1267292651986700e+01 1.0883597354606250e+01 8.3617687607154600e+00 0 1 -1
284 2 9.2033233516613357e+00 1.1212307444737645e+01 9.2034538666631942e+00 0 -1 1
15 2 1.1342354588445755e+01 1.3087787973546808e+01 9.3588872076152416e+00 0 -3 1
249 2 5.8291416452296896e-01 2.2617506220557950e+00 1.4071298590626704e+01 2 4 0
135 2 3.3152254618880379e+00 1.0385063802694376e+00 1.0112742363062933e+01 1 -1 0
179 2 3.6781985779562034e+00 3.4404736355779386e-01 1.4142672078286903e+01 1 2 -4
35 2 3.1560470029970356e+00 3.7559423935724596e+00 1.0156036273626317e+01 -1 -4 3
174 2 2.3439654250640700e+00 2.0860288293809188e+00 1.2086634046435544e+01 2 3 -2
172 1 3.0753932531776624e+00 2.2214717737387670e+00 1.1505708297439147e+01 2 3 -2
173 2 3.9533335123889568e+00 2.2823523734872286e+00 1.2019463464738324e+01 2 3 -2
168 2 6.2988981161673401e+00 2.1847406769041875e+00 1.2798754341335515e+01 4 -2 3
167 2 6.0650656192173695e+00 2.5961024653643654e+00 1.1283269899362894e+01 4 -2 3
166 1 5.7418210894605455e+00 2.7655862372375490e+00 1.2244653730096221e+01 4 -2 3
73 1 8.2693780356017399e+00 7.8058799955842340e-01 1.2657731087397849e+01 2 -1 -1
251 2 7.9347553545936851e+00 4.0067105442341768e+00 1.3675813527330526e+01 0 1 1
252 2 8.4836690382602953e+00 2.6482707411990467e+00 1.3177192805402626e+01 0 1 1
193 1 6.6685775915553105e+00 5.0349760943210233e+00 1.4228620239976905e+01 0 -1 1
195 2 6.0066432663596290e+00 5.2177917910050660e+00 1.3536173781358128e+01 0 -1 1
43 1 8.5546732198219999e+00 4.0165088024861726e+00 1.0626904675019645e+01 -4 0 2
248 2 1.1964231284878057e+01 2.3662330914182026e+00 1.4372257605038834e+01 1 4 0
247 1 1.2595931687111396e+01 1.9220866357500135e+00 1.3702253683504477e+01 1 4 0
74 2 9.2003591797498672e+00 8.0776543672182677e-01 1.2453426726654143e+01 2 -1 -1
250 1 8.7959750263005780e+00 3.4964773784106109e+00 1.3626178894966106e+01 0 1 1
206 2 9.9813440073603950e+00 4.8664531568660445e+00 1.2968093959937248e+01 -2 3 0
163 1 1.1680333564830729e+01 2.9468167626411428e+00 1.1435888585918043e+01 0 2 -5
105 2 1.2909826621618762e+01 2.6335066352334664e+00 1.0395063295357959e+01 4 0 1
164 2 1.1157086076730998e+01 2.1421909612297951e+00 1.1249714793501573e+01 0 2 -5
165 2 1.2020633119066161e+01 2.6619788312386294e+00 1.2339891652579425e+01 0 2 -5
45 2 9.4048110638453224e+00 4.0081595005679960e+00 1.0998695262092472e+01 -4 0 2
139 1 1.0610839137863330e+01 5.7045401136659302e-01 1.1144040725633371e+01 -4 4 -3
141 2 1.0658648171134232e+01 4.5302123001010192e-01 1.0169875088822034e+01 -4 4 -3
72 2 2.2684235865834488e+00 5.5409148126999730e+00 1.1066608830462213e+01 2 4 2
70 1 2.1710007637491739e+00 6.0138044436464995e+00 1.1892377027897137e+01 2 4 2
71 2 3.1494543419096543e+00 6.2456613215702612e+00 1.2075692297408112e+01 2 4 2
123 2 4.2258807822902797e+00 7.4095287495060846e+00 1.3689495851745567e+01 -1 0 1
2 2 1.6517153242036910e+00 9.5618184818285918e+00 1.1708226744893485e+01 -3 1 1
187 1 6.0932195765075903e-01 8.9988255910598038e+00 9.8134111797996830e+00 -1 2 3
3 2 1.9174539065250520e+00 9.2713094781319558e+00 1.3244614352842126e+01 -3 1 1
84 2 1.0873213025713055e+00 6.3058070631327823e+00 1.3168547272705847e+01 0 0 0
82 1 3.6147701481233174e-01 6.3805716884724610e+00 1.3782615160098036e+01 0 0 0
11 2 3.7036326032847220e+00 1.0237528451336932e+01 1.2636093815120979e+01 -4 3 3
1 1 1.8812954451448305e+00 9.9629751682905514e+00 1.2576183220821440e+01 -3 1 1
227 2 4.5227431282742367e+00 8.0466402610730476e+00 1.0129898691623307e+01 1 1 2
121 1 4.5393610666271051e+00 6.6751086790480691e+00 1.3128519610582678e+01 -1 0 1
122 2 4.8495901900679073e+00 7.1997922410197734e+00 1.2314622451193401e+01 -1 0 1
51 2 6.7996007053123240e+00 6.0605502934763953e+00 9.7590776774219314e+00 0 -1 -2
194 2 7.2710092018958727e+00 5.7578339267757679e+00 1.4228379947277000e+01 0 -1 1
226 1 5.2080789619580719e+00 8.0846016907738765e+00 1.0863958215953508e+01 1 1 2
228 2 5.8889772730065006e+00 7.5454111524049878e+00 1.0586031384085993e+01 1 1 2
49 1 7.4746330877330358e+00 6.5290542518415560e+00 1.0323633781252715e+01 0 -1 -2
50 2 8.0022507412454047e+00 5.7283277732026212e+00 1.0637298220442327e+01 0 -1 -2
12 2 4.7938087580802664e+00 9.5759718659444069e+00 1.1926160165658338e+01 -4 3 3
128 2 8.0779829689567162e+00 7.8834590020581690e+00 1.2858427690206502e+01 3 -1 2
127 1 7.7762012570691077e+00 7.4171215886727557e+00 1.3644646152678206e+01 3 -1 2
129 2 7.7438962734617371e+00 7.9605344004398155e+00 1.4428322058886947e+01 3 -1 2
10 1 4.6874316931398221e+00 1.0326806948535241e+01 1.2506957056184337e+01 -4 3 3
117 2 1.1574737885058539e+01 6.4777843870565430e+00 1.0014269492743214e+01 2 0 -3
207 2 9.6589057761066464e+00 6.2305839051125265e+00 1.3593734406740312e+01 -2 3 0
205 1 1.0333839074255810e+01 5.7897910570962861e+00 1.3107274346615476e+01 -2 3 0
116 2 1.0963279577218518e+01 6.6423053648169565e+00 1.1381948082584181e+01 2 0 -3
188 2 1.2808104318729686e+01 8.4052433745112918e+00 1.0201497439809959e+01 -2 2 3
83 2 1.2412716613853355e+01 5.9837827179576548e+00 1.3353996406426189e+01 -1 0 0
115 1 1.1428738614783033e+01 7.1577108356004251e+00 1.0714643093824840e+01 2 0 -3
224 2 1.2559019244107859e+01 8.0011926569329574e+00 1.3708139627561264e+01 -4 -5 -4
223 1 1.2080888237461544e+01 8.8694036686426987e+00 1.3724519883085726e+01 -4 -5 -4
183 2 9.7497518695750642e+00 8.3206078814289519e+00 1.1315206869609206e+01 -6 2 0
181 1 9.7420402974698135e+00 9.0804094018665893e+00 1.1881850625172383e+01 -6 2 0
182 2 1.0580950513516544e+01 8.9248076808160590e+00 1.2398149809155271e+01 -6 2 0
225 2 1.2729254757807485e+01 9.5472205778915207e+00 1.3550503374189724e+01 -4 -5 -4
285 2 9.8635267962218407e+00 1.0297250480393686e+01 1.0376587689333714e+01 0 -1 1
231 2 2.7924006950192330e+00 1.4055875647936192e+01 1.3606622433932200e+01 2 0 -3
130 1 5.3636098106051022e-01 1.5197606526766501e+01 1.1282463104542908e+01 1 1 0
7 1 3.4813529239414582e+00 1.1585906774676141e+01 9.8652821325329576e+00 0 4 2
131 2 1.2082866671166967e+00 1.4969702470453708e+01 1.1907109926304498e+01 1 1 0
9 2 3.6810730947318704e+00 1.0939379674866906e+01 1.0557270016811854e+01 0 4 2
230 2 3.5693300437629905e+00 1.4280490215500256e+01 1.2321523439022837e+01 2 0 -3
229 1 2.9034372361431844e+00 1.4657286548131838e+01 1.2902897301689444e+01 2 0 -3
132 2 4.6403986889494281e-01 1.4425429962760328e+01 1.0705082454805970e+01 1 1 0
24 2 3.9695765343140197e+00 1.3157404702800701e+01 1.0578620879439102e+01 -3 1 -2
125 2 6.4811184644551867e+00 1.5051078805166654e+01 1.3981056514514945e+01 -1 -3 2
23 2 4.5242587747848528e+00 1.4571865879659329e+01 1.0539459767542015e+01 -3 1 -2
22 1 4.6825549456873450e+00 1.3697733674936895e+01 1.1019544256912289e+01 -3 1 -2
75 2 7.9031309254596165e+00 1.5327583327862419e+01 1.2155307209478622e+01 2 -2 -1
30 2 5.0650427836227374e+00 1.1360537914027505e+01 1.4067390816084972e+01 0 0 1
177 2 8.0047203030103837e+00 1.2781446227483400e+01 9.7878091243272731e+00 -2 -4 -2
192 2 6.4531288083937710e+00 1.3560194481954406e+01 1.1323641693929620e+01 -3 3 -2
190 1 7.4141741455314811e+00 1.3610787977229180e+01 1.1341774264948974e+01 -3 3 -2
191 2 7.7221509907618104e+00 1.3012794932754554e+01 1.2020640317779366e+01 -3 3 -2
266 2 1.1671829440720991e+01 1.5398289421893146e+01 1.3438854832054304e+01 0 3 0
265 1 1.1179055898491988e+01 1.4598095740379662e+01 1.3618175774137603e+01 0 3 0
14 2 1.2794876161972468e+01 1.2671897687683142e+01 9.8787883840958006e+00 0 -3 1
60 2 8.9409069983059695e+00 1.1013196255091655e+01 1.2394567388514824e+01 4 -1 -2
267 2 1.1706435848559060e+01 1.3990410833615091e+01 1.4195111256815496e+01 0 3 0
58 1 9.0761614971161606e+00 1.1888630162376668e+01 1.2833701504600283e+01 4 -1 -2
59 2 1.0058086767432464e+01 1.1958062251822362e+01 1.2931146564571847e+01 4 -1 -2
140 2 1.1083928440947272e+01 1.5165881802837140e+01 1.1633895950359772e+01 -4 3 -3
155 2 1.1783490190724478e+01 1.2193096555358027e+01 1.1908249217617408e+01 2 0 -1
154 1 1.1726884920901469e+01 1.1554542087886848e+01 1.2666763738552941e+01 2 0 -1
13 1 1.1930415809508819e+01 1.3043024276640470e+01 1.0138996828607116e+01 0 -3 1
156 2 1.2206697003337506e+01 1.1970079895773353e+01 1.3369343424754225e+01 2 0 -1

Velocities

144 2.9217748709245445e+01 -2.2987351212352060e+01 8.6779447903108178e+00
86 2.3138381837531721e+01 1.2520464070872897e+01 3.6351811268762670e+00
85 -5.9266017809957674e+00 5.2177458524886677e-01 1.4920289075427571e+00
87 -2.1485593051085747e-01 4.0212169170271705e+00 -1.0130537608601209e+01
107 1.2287202279895286e+01 -1.6410362774306432e+01 -1.3315992118001381e+00
106 -3.2430256745053727e+00 -7.9339920901487453e+00 4.7862133594404312e+00
54 2.6551805810645845e+01 7.0884995727103606e+00 1.2372661823244655e+01
142 5.2371769887325454e+00 3.4936531043984291e+00 -1.2539482936592234e+00
52 2.4940912714320178e+00 -2.1587993714809037e-01 -2.5858159785032608e+00
108 4.0695973045712472e+00 -1.0266842684792733e+01 -2.6226810360491580e+01
56 -1.8956028156869256e+00 1.9166674138204534e+01 -7.9183972830130482e+00
63 6.9716433404447562e+00 2.6559589512684592e+01 2.8056645522672494e+00
178 -2.2795977286602875e+00 1.2704732634457632e+00 4.2530042675674178e+00
143 -2.7990634783288584e+01 -9.1989868688351698e-02 -1.0053816065362712e+01
53 2.4263388410192075e+01 -8.9216118334642935e+00 5.5948825501271404e+00
180 4.2136379210863161e+01 -3.6405773079522885e+00 -4.8751356065400010e+01
220 3.6867066208969428e+00 -1.4519073216094065e-02 -8.1628053620287677e-01
222 -2.1603938689432631e+01 -3.7698700693432862e+01 -1.8880493651329218e+01
221 6.3631045885308923e+00 1.9168386984451267e+00 -1.0840487571499557e+01
152 -4.5211805743882131e+01 -1.3986785529738675e+01 -3.0977323378228974e+01
151 3.1431093230158944e+00 -3.5240737552767745e+00 -5.1875381559995830e+00
274 -7.1440685416345606e-01 1.8381642712696298e+00 3.0077700798125786e+00
110 -4.1372542067199971e+00 -9.9397045495567600e+00 2.4625708065500255e+01
215 -3.4447264172510870e+01 2.8654664169651229e+00 2.8627034646858744e+00
214 3.2626897671532147e+00 -1.2781300084580145e+01 2.3489895878511722e+00
216 1.9720775224569572e+01 1.0019399828096978e+01 -1.0418255719123666e+00
109 1.9680803239858478e+00 2.9692557621456833e-01 1.4697265615321111e+00
111 1.0788500917255739e+01 -4.8104826197868285e+00 -1.7574564136760809e+01
92 1.3813807255729676e+01 -2.8393784023217258e+01 -2.6242945447606314e+01
42 1.4338603517298015e+01 -3.2578577194745826e+01 -2.4399843411013109e+01
6 2.2720170285554726e+01 7.6192700996635709e-01 -2.7575372697375040e+00
4 3.0023696193429892e+00 4.5893235908337182e+00 -1.4049457277344248e+00
279 -2.6445952599692102e+01 1.6574037564698059e+00 5.2704606929080375e+00
146 -2.2088821450843103e+01 -2.5690076454995676e+01 1.5458120704175204e+00
27 4.4208711782083228e+00 2.6679113641070995e+01 1.5337996359995904e+01
25 -9.9023599048745181e-01 4.9998866967125970e+00 -4.2445552943193805e+00
26 3.2496265171075862e+01 1.5408969788712632e+01 1.0451776307744844e+01
57 9.7190444378917178e+00 -1.9512034957033059e+01 -2.4405450467138870e+01
5 1.2352691456474149e+01 -5.0999573714692517e+00 2.2685830791741368e-01
153 1.4640296610018384e+01 -1.5653140439765398e-01 1.9291319182951330e+01
136 4.1741014474286081e-01 -5.3592042983633492e+00 -1.5064265076535754e+00
138 1.5136180489668796e+01 2.1078141053078618e+01 -1.2638521136487169e+01
137 -2.7786172023650710e+01 -3.3834174658931429e+00 -7.5400099743930680e+00
78 -2.0105775889407451e+00 -7.0634223517239585e+00 2.4178626707029871e+01
76 -3.3099900187203661e+00 5.5471595233079007e+00 -4.9999625646007049e+00
77 -2.1965704065640921e+01 -2.7792507050345133e-01 -2.2988729425585825e+00
244 -3.9568018845321777e+00 4.3448130246674506e+00 -6.3461871743200273e+00
260 5.1237332332572683e+00 1.1149326250604281e+01 -1.2880507348387255e+01
55 5.0174845787863269e+00 4.0968268782771569e+00 8.2753909756972854e-01
145 -3.3341531807552651e+00 1.7160355537897909e+00 -2.4858826217904921e+00
147 5.8619144526454106e+00 2.3571306363400613e+00 2.6757838285230742e+00
233 4.8119365921077424e+01 1.1438099151879911e+01 -1.3540624018587270e+01
232 -1.0553675751126075e-01 3.5821838493168728e-01 -2.1609099205673790e+00
234 3.2510950306122282e+00 1.5735452787231756e+01 3.6003725038738466e+01
197 -1.0660403483800200e+00 -2.3626016240220999e+01 -8.3948702259939232e+00
245 -2.4143406986444134e+01 2.6048445767017530e+01 1.1541848100073647e+01
257 -1.3930460555621419e+01 -1.6261050106548257e+01 2.4881988926039007e+01
258 1.1889252253410460e+01 7.3113173945316756e-01 2.7758327170900831e+01
277 4.4634165494210611e+00 -7.4915321239020285e+00 -2.2023565280017658e+00
278 1.6342792736582926e+01 3.9017521622522253e+01 2.6495440686182943e+00
169 1.1097853101537380e+00 3.3361428669819131e+00 4.2587045108044990e+00
254 8.7813997277437821e+00 -1.6688149848889935e+01 4.6212347192897161e+00
253 -5.0604251812418424e+00 2.1094870014089411e+00 4.7135355898508724e+00
255 -2.7283895345609245e+01 -8.3777164751410673e+00 6.0263379040088099e+00
170 -3.1023694756414772e+00 2.3827428880833679e+01 -2.5559570016523580e+01
171 -2.1017267445730933e+01 -7.7422179654325163e+00 -1.4184371948343928e+01
17 2.7766921880445423e+01 1.6060858191121388e+00 8.9517856404564995e+00
69 -1.7176037915217496e+01 -2.5551230431239922e+01 2.4615518003712413e+00
264 -9.4677020850933769e+00 -4.9900892619686017e+00 2.6363726558417333e+01
262 3.6946833244320958e+00 -2.8723896554416832e+00 -3.1938134959861606e+00
263 -2.7570628996751360e+01 3.0331827056872601e+01 -6.1475689655967054e+00
29 1.3389088485791838e+01 -4.2410537134872435e+00 1.9193739238019813e+01
276 -3.0314773120697542e+00 -4.6995001643245928e+01 2.0464677438370522e+01
275 -6.1014532904186174e+00 2.5046604714239691e+00 -3.0060836084731651e+01
18 -1.7707764821592445e+01 -8.3678893635254425e+00 -1.5125284348692427e+01
126 -1.4975620008986549e+01 1.4523957719805168e+01 -5.2190570733699131e+00
28 2.1080008308309277e+00 -6.9962770812880031e+00 1.6848510897284235e+00
124 -7.8486906517022632e+00 -8.7539503294958776e-01 -6.4582508854169625e+00
16 9.1379304612763033e+00 8.1028468937593825e+00 -6.8747586366921762e+00
201 6.1549715401044987e+00 -6.8594624135355833e+00 1.5821104967193879e+01
256 2.3473796318055906e+00 -2.2881235279449569e-01 -1.1224112283864200e+01
200 -1.0638479393306442e+01 1.5902738139530813e+01 1.1333686496417839e+01