LAMMPS data file via write_data, version 2 Jun 2020, timestep = 7889000

192 atoms
2 atom types

0.0 12.5433 xlo xhi
0.0 12.5433 ylo yhi
0.0 12.5433 zlo zhi

Masses

1 15.9994
2 1.00794

Atoms # atomic

40 1 2.4974754685001411e+01 2.0057575053764584e+01 1.7802925502148732e+01 0 -2 2
134 2 2.0957773547984395e+01 2.2426448674148887e+01 1.7107791987196844e+01 0 2 0
41 2 2.5253007943603464e+01 2.0344886886547737e+01 1.6876528211482004e+01 0 -2 2
114 2 2.4483079298939643e+01 2.0387959475768646e+01 1.5128729909015775e+01 -1 3 1
174 2 2.2062074032407892e+01 2.4072010147719126e+01 1.6708100008973613e+01 1 -2 1
133 1 2.0766531767251205e+01 2.2895205830944207e+01 1.6281005037356596e+01 0 2 0
155 2 2.1990513450924002e+01 2.0662482654026206e+01 1.4975810861832873e+01 -2 1 0
154 1 2.2544527469305123e+01 2.1441950271980598e+01 1.4939953031095325e+01 -2 1 0
108 2 2.2165042526320647e+01 2.2163747215715304e+01 1.5489495991881194e+01 -2 1 0
113 2 2.5379596785263537e+01 2.1568269895414591e+01 1.4839086211970560e+01 -1 3 1
75 2 2.3718627854164133e+01 2.3343861041256215e+01 1.4395507473896242e+01 0 1 4
1 1 2.4555668675887020e+01 2.3313012789273422e+01 1.3951735013239945e+01 -1 0 4
162 2 2.3819519301235310e+01 2.3227495750436269e+01 1.7597454937336199e+01 -1 1 0
112 1 2.5374954615945462e+01 2.0781301042687627e+01 1.5347638069898268e+01 -1 3 1
135 2 3.1600473583706325e+01 2.2896380681438472e+01 1.6068965314892747e+01 -1 2 0
15 2 2.8963313245507415e+01 2.3309288697371684e+01 1.6476391483365965e+01 0 -4 2
13 1 2.9823298489092664e+01 2.2778221111912661e+01 1.6533179202582609e+01 0 -4 2
14 2 2.9589813275989712e+01 2.1967972166113967e+01 1.6050100764840685e+01 0 -4 2
73 1 3.0027554213431358e+01 2.0510499861090505e+01 1.5163106139772296e+01 -3 -2 0
74 2 2.9255597193394962e+01 1.9963544237943974e+01 1.5243683971210757e+01 -3 -2 0
3 2 3.0013319526737718e+01 2.0711242081587255e+01 1.4197770041172124e+01 -3 -2 0
98 2 2.6979030511425933e+01 1.9838840770390451e+01 1.5224785064717491e+01 -7 1 3
186 2 3.1588168005572783e+01 1.9874747984216071e+01 1.5372033658545673e+01 -1 -1 -2
173 2 2.2823875108955168e+01 2.5344829084244665e+01 1.6218979051439199e+01 1 -2 1
172 1 2.2917058057196861e+01 2.4564435464296615e+01 1.6869613722597897e+01 1 -2 1
85 1 2.3114871465628745e+01 2.7114846490639628e+01 1.5289945810434618e+01 1 -1 -3
20 2 2.1670931065183176e+01 2.7426749275931563e+01 1.4313102164150790e+01 -1 1 0
19 1 2.0828575659011047e+01 2.7774457295758712e+01 1.3898442468198652e+01 -1 1 0
86 2 2.3790112776411004e+01 2.6796821357498786e+01 1.4650843837711275e+01 1 -1 -3
87 2 2.3469299267523816e+01 2.7813765505533237e+01 1.5853469403453150e+01 1 -1 -3
21 2 3.2098004542377936e+01 2.7007950726763660e+01 1.3763274874972030e+01 -2 1 0
180 2 3.1863108977247830e+01 2.7836680305717664e+01 1.5618783209605914e+01 2 -1 -1
150 2 3.1400503459692906e+01 2.4719642047921894e+01 1.3847306777289637e+01 -2 -1 2
170 2 3.1151325130915222e+01 2.5493677390890348e+01 1.6604588351181732e+01 -4 1 -2
169 1 3.1222641547147063e+01 2.5746893647667104e+01 1.7519778881691181e+01 -4 1 -2
26 2 2.8047400603022520e+01 2.8331185829630854e+01 1.6924233905440698e+01 -1 1 -1
25 1 2.7342011376661226e+01 2.7763360432101091e+01 1.6706116714955623e+01 -1 1 -1
51 2 2.7300207549681666e+01 2.7079508954292891e+01 1.7369735202167785e+01 -1 2 -1
83 2 2.8305898149351378e+01 2.5497983263928507e+01 1.5681935900454990e+01 -2 2 1
148 1 3.1335379658674455e+01 2.5530091685817059e+01 1.4398988570616954e+01 -2 -1 2
149 2 3.0431937058277402e+01 2.5726018626275295e+01 1.4468901020621585e+01 -2 -1 2
82 1 2.8559083860424231e+01 2.5963601867816131e+01 1.4862351978076724e+01 -2 2 1
36 2 2.8456324402032141e+01 2.6919162161719715e+01 1.5051096736377595e+01 -2 2 1
121 1 2.8486829674414778e+01 2.4948338431150567e+01 1.7463506901245143e+01 -1 -3 0
130 1 3.1651722508429202e+01 2.8249069967590604e+01 1.6435354153810152e+01 2 -2 -1
99 2 3.0999630274793418e+01 2.6681818525455324e+01 1.7541610220466143e+01 -4 1 -2
42 2 2.4250060409175322e+01 3.2252153699486385e+01 1.7820915386631373e+01 0 -3 2
5 2 2.5694981819117174e+01 2.8584522284492202e+01 1.6766272784081035e+01 -2 -1 2
28 1 2.2553330812396396e+01 3.1751444256197473e+01 1.7769545851859679e+01 -1 -5 -2
29 2 2.1964292570063943e+01 3.1785655179464978e+01 1.7008571777243453e+01 -1 -5 -2
4 1 2.4858833648932297e+01 2.9018661755817927e+01 1.6961865004376044e+01 -2 -1 2
6 2 2.4647588391890775e+01 2.9535647366267636e+01 1.6185842613269422e+01 -2 -1 2
67 1 2.4369071130324535e+01 3.0602550017866157e+01 1.4636363703250501e+01 1 -1 0
69 2 2.5006450696782046e+01 3.1337201421377365e+01 1.4424798908753667e+01 1 -1 0
184 1 2.0640816294516593e+01 3.2330454125666506e+01 1.5499889649582125e+01 0 -2 -2
185 2 2.0663044421003431e+01 3.1579809014066715e+01 1.4875119070558572e+01 0 -2 -2
119 2 2.1100066679106561e+01 2.8776188829318926e+01 1.7579350104097596e+01 2 -1 -2
68 2 2.3851504583179484e+01 3.0328834197751846e+01 1.3839369032962651e+01 1 -1 0
80 2 2.6397537901777145e+01 2.9373517114891932e+01 1.4037243780318091e+01 -1 0 1
97 1 2.7696754619907296e+01 3.1912738279596883e+01 1.5194465217463790e+01 -7 0 3
23 2 2.8967842121046637e+01 2.9892917974704083e+01 1.5171345510230303e+01 4 1 -1
171 2 2.7361584893955850e+01 3.1263382391221128e+01 1.4521109051031926e+01 -6 1 3
22 1 2.9457314717451709e+01 2.9704632736194533e+01 1.5978901155557320e+01 4 1 -1
24 2 2.9364359917636300e+01 3.0464834763731773e+01 1.6581472400655635e+01 4 1 -1
79 1 2.7328536498381080e+01 2.9460534368263669e+01 1.3906336987581035e+01 -1 0 1
131 2 3.0793494457709933e+01 2.8705125240296276e+01 1.6228996041843672e+01 2 -2 -1
160 1 2.3844491138368287e+01 2.2600698783941276e+01 1.8420493497567325e+01 -1 1 0
161 2 2.4176822100869028e+01 2.1717931683063100e+01 1.8173297431178089e+01 -1 1 0
95 2 2.5719378580544024e+01 2.3342170010552412e+01 2.1314746952051252e+01 1 4 0
96 2 2.4847585782093077e+01 2.3310619880970151e+01 1.9896692372034966e+01 1 4 0
125 2 2.1699052703423138e+01 2.0474029009898747e+01 1.8801585656398021e+01 3 2 2
124 1 2.1329215498386439e+01 2.1448816511392685e+01 1.8922198247204985e+01 3 2 2
126 2 2.2037732402090533e+01 2.2044535080791462e+01 1.8648309723436753e+01 3 2 2
144 2 2.1381825120020792e+01 2.1408711875106267e+01 2.0690569664279693e+01 2 3 -1
143 2 2.0552671848379362e+01 2.0776427782721374e+01 2.1926409399271758e+01 2 3 -1
142 1 2.1301973307676850e+01 2.1420702978250898e+01 2.1689529740841845e+01 2 3 -1
94 1 2.5149049675179583e+01 2.3872890582705452e+01 2.0661695291347890e+01 1 4 0
89 2 2.7198365749596142e+01 2.1572495654203667e+01 2.1972302649844305e+01 -1 2 2
55 1 2.8109670688630224e+01 2.0574979616523763e+01 2.0801438161565180e+01 -2 -1 -1
33 2 2.9629224772457107e+01 2.2157075190295785e+01 1.8102504471329976e+01 3 2 -1
7 1 2.9601243407996218e+01 2.1766530897145454e+01 1.8995670496571680e+01 2 2 -1
56 2 2.8522799725855258e+01 2.1060788299606902e+01 2.0042575825037346e+01 -2 -1 -1
8 2 3.0362520526833833e+01 2.2242922333570466e+01 1.9389309069076649e+01 2 2 -1
181 1 3.1112277505633507e+01 2.3982168021847961e+01 1.9964566622097923e+01 3 2 -2
183 2 3.2018630871511931e+01 2.4023811278263750e+01 2.0271399807280645e+01 3 2 -2
159 2 2.9875645317541220e+01 2.0055291337003691e+01 2.1703610730557330e+01 1 4 0
140 2 2.2295751794774915e+01 2.5376387394150491e+01 1.8320899436517180e+01 0 -1 2
66 2 2.3490362278244870e+01 2.7211353931750029e+01 1.8933278733028004e+01 1 2 -1
141 2 2.0979608357080338e+01 2.6202580383695349e+01 1.8174426969285815e+01 0 -1 2
139 1 2.1702215713908672e+01 2.6062506659932016e+01 1.8787965234985045e+01 0 -1 2
178 1 2.1711820282694944e+01 2.7650163136597499e+01 2.1128539894581209e+01 -3 -1 1
179 2 2.1812436441493094e+01 2.7318216234573388e+01 2.0249641241620502e+01 -3 -1 1
123 2 2.5561735516619414e+01 2.6724297764235352e+01 1.9218892464969333e+01 0 2 -1
146 2 2.5950578948697796e+01 2.5240651583894564e+01 1.9602497218931674e+01 -1 2 -1
132 2 2.0765714519126337e+01 2.7713797867419217e+01 2.1342554058633127e+01 -3 -1 1
62 2 2.3955100267595434e+01 2.4799964091576975e+01 2.1420296972199978e+01 -3 0 -1
145 1 2.6154645342892113e+01 2.5918249572339132e+01 1.8940379830289125e+01 -1 2 -1
187 1 2.6118104345979514e+01 2.7838586108512864e+01 2.2037614815225133e+01 1 3 0
64 1 2.4236842172380630e+01 2.7851605773315391e+01 1.9203633013402396e+01 1 2 -1
61 1 2.3327072059181464e+01 2.5050109151548700e+01 2.2146015008079949e+01 -3 0 -1
60 2 3.0251526241672064e+01 2.4523022191188165e+01 2.1251004895601486e+01 1 1 0
182 2 3.1165334626449980e+01 2.4517601021848002e+01 1.9177791583969015e+01 3 2 -2
147 2 2.7736675991930010e+01 2.4799395710602472e+01 1.8022238921554145e+01 -1 -2 0
188 2 2.6916875582607730e+01 2.7238347547912582e+01 2.1946384437385603e+01 1 3 0
122 2 2.9146423448290776e+01 2.5303108352304044e+01 1.8057216296275090e+01 -1 -3 0
46 1 3.0734282200491908e+01 2.7566124310914354e+01 2.0970692064072722e+01 -3 4 0
47 2 3.0384186968341666e+01 2.6695436880737589e+01 2.1039848816749469e+01 -3 4 0
16 1 2.9332051831955944e+01 2.8254301142678578e+01 1.8584377774479083e+01 -5 0 0
18 2 2.9669378648555632e+01 2.7852375736826602e+01 1.9420781364574907e+01 -5 0 0
48 2 3.0259936610206918e+01 2.8215660316552864e+01 2.1541092944142978e+01 -3 4 0
65 2 2.4402587530855445e+01 2.8480710820316851e+01 1.8504316416939453e+01 1 2 -1
30 2 2.2484518892391804e+01 3.0766575006303412e+01 1.7982775569227602e+01 -1 -5 -2
128 2 2.1116688339626972e+01 3.0542710735715726e+01 1.9831423233028111e+01 1 -2 2
120 2 2.1682084327606081e+01 2.8751693925928684e+01 1.9009084860555181e+01 2 -1 -2
118 1 2.1453968925122680e+01 2.9309498166897189e+01 1.8317095657420111e+01 2 -1 -2
84 2 2.6049867519919541e+01 3.2075409256724882e+01 1.8849654820457999e+01 0 -3 1
110 2 2.4230362902580271e+01 3.0453599157271281e+01 2.1083854178213322e+01 0 1 0
111 2 2.4467857337904753e+01 2.9211979139610847e+01 2.0238747098416187e+01 0 1 0
109 1 2.4952812285244679e+01 2.9995755247284514e+01 2.0640410021287856e+01 0 1 0
35 2 2.6024356931702581e+01 3.0932930516150883e+01 1.9821589721061791e+01 0 -4 1
189 2 2.6065876207979791e+01 2.8593559733329538e+01 2.1384107406299940e+01 1 3 0
127 1 2.1193863781722946e+01 3.0843797567793064e+01 2.0784145738978474e+01 1 -2 2
105 2 2.0303989008943539e+01 3.1162861737331163e+01 2.0955470193731749e+01 1 -2 2
81 2 2.7664195731794450e+01 3.2589677940543879e+01 2.0428739669851328e+01 -1 -2 -1
32 2 2.8176904695479593e+01 3.1166547320538541e+01 1.8588332813134535e+01 0 -2 1
9 2 2.9512908398196544e+01 3.2008246082509146e+01 1.8396802324930459e+01 0 -2 1
31 1 2.9100038287767909e+01 3.1089670055824087e+01 1.8394736420704216e+01 0 -2 1
34 1 2.6663017992085511e+01 3.1550005026696386e+01 1.9386576996664733e+01 0 -4 1
17 2 2.9545101949082035e+01 2.9229136567299427e+01 1.8551763381763848e+01 -5 0 0
157 1 3.0708845725777522e+01 3.2379680852397072e+01 2.1936481799692562e+01 1 3 0
2 2 2.4479120193148908e+01 2.3754392787448996e+01 2.6055754542648931e+01 -1 0 3
27 2 2.2080203110329272e+01 2.1367846411555220e+01 2.6049646766227664e+01 3 2 -3
50 2 2.1794290611881475e+01 2.2118467870641627e+01 2.4678241264932009e+01 2 2 -3
49 1 2.2154697744547075e+01 2.1312969260751647e+01 2.5037445203898152e+01 2 2 -3
165 2 2.4073668263332124e+01 2.1341624716449040e+01 2.4455319954139167e+01 1 -3 1
77 2 2.0620554869153249e+01 2.0273740784284410e+01 2.4562324668498338e+01 4 -5 -2
163 1 2.4760170451626841e+01 2.0770510535640877e+01 2.4096398648168687e+01 1 -3 1
164 2 2.5213473120545718e+01 2.1398037881618890e+01 2.3496664847464455e+01 1 -3 1
117 2 2.1081242501335922e+01 2.2827540852575446e+01 2.2635243698794582e+01 3 1 1
115 1 2.0907638305982704e+01 2.3706541070237300e+01 2.3125118754487250e+01 3 1 1
88 1 2.6694776834915192e+01 2.2273031353703129e+01 2.2395358038599742e+01 -1 2 2
177 2 2.6593554902088123e+01 2.0975827238065062e+01 2.5098861200970749e+01 -1 -1 -2
151 1 2.7249065121336400e+01 2.1316606101590541e+01 2.5746667393969638e+01 -2 -1 -2
103 1 3.1608760141497211e+01 2.3620777251956685e+01 2.5690810489241265e+01 -2 1 0
90 2 2.7299632948351913e+01 2.2848083605904396e+01 2.2928773678040834e+01 -1 2 2
152 2 2.7360225161812686e+01 2.2261473758358129e+01 2.5404014286323001e+01 -2 -1 -2
39 2 2.9017861772651433e+01 2.1346258698701426e+01 2.5623513179908990e+01 6 -4 -1
37 1 2.9978303028395580e+01 2.1300507927808400e+01 2.5724306616062972e+01 6 -4 -1
38 2 3.0376594258003614e+01 2.0574076177251012e+01 2.5233400226750540e+01 6 -4 -1
129 2 3.1070125328594166e+01 2.2840142599345430e+01 2.5438066527265271e+01 -1 1 0
92 2 2.9079862396592635e+01 2.3879515003936760e+01 2.3768822727464190e+01 0 4 1
104 2 3.2070510857628598e+01 2.3974011447863543e+01 2.4881420875768718e+01 -2 1 0
153 2 2.3783895620733055e+01 2.6493956349328275e+01 2.5275042819584005e+01 6 -3 0
175 1 2.4340852168922172e+01 2.6652742102879643e+01 2.6061454252212922e+01 6 -3 0
176 2 2.5237405019521962e+01 2.6547924197533078e+01 2.5779206361866873e+01 6 -3 0
44 2 2.2935214854098728e+01 2.7804921993096428e+01 2.2321320296555758e+01 -3 -4 -1
58 1 2.4985556154431073e+01 2.4238074417005659e+01 2.4279902475885969e+01 -1 1 -1
43 1 2.3649470136946249e+01 2.7635902746491599e+01 2.2989201752423199e+01 -3 -4 -1
63 2 2.3442798797388640e+01 2.5950515661647380e+01 2.2392355280881411e+01 -3 0 -1
116 2 2.1627586302656113e+01 2.4350927908427515e+01 2.2984466332996337e+01 3 1 1
45 2 2.4547720114614481e+01 2.7742059338688417e+01 2.2540097040238059e+01 -3 -4 -1
59 2 2.4283810228668830e+01 2.4277073293883287e+01 2.3562566143221684e+01 -1 1 -1
12 2 2.5795645168113019e+01 2.4193789518825199e+01 2.3776732950667331e+01 -1 1 -1
54 2 2.7144711645203621e+01 2.6222332824337414e+01 2.6378192851148704e+01 2 2 0
11 2 3.1189611212236414e+01 2.4413701926398637e+01 2.2553629169458187e+01 1 0 0
10 1 3.0330316337851652e+01 2.4732007529065932e+01 2.2201886910434670e+01 1 0 0
93 2 2.8069293869223472e+01 2.4948560075848061e+01 2.4385987164119285e+01 0 4 1
91 1 2.8172602959818068e+01 2.4150987320562734e+01 2.3898650129182453e+01 0 4 1
53 2 2.7335508068050483e+01 2.7172300000778080e+01 2.5089287906284390e+01 2 2 0
52 1 2.6999630752382934e+01 2.6283584219638833e+01 2.5408220194014238e+01 2 2 0
101 2 2.1851794491946638e+01 3.0422905820674615e+01 2.6139671757376401e+01 1 -1 -1
100 1 2.0859122109113937e+01 3.0385775599598801e+01 2.6236163441678691e+01 1 -1 -1
102 2 2.0602988706637948e+01 2.9461807335715527e+01 2.6503350725819548e+01 1 -1 -1
192 2 2.2950289869542434e+01 3.1952543086790371e+01 2.2231446791036003e+01 0 -2 0
190 1 2.3562675306886028e+01 3.1494607461212272e+01 2.2826625784531281e+01 0 -2 0
191 2 2.3767984860700043e+01 3.2276363866254158e+01 2.3424169559783362e+01 0 -2 0
167 2 2.3243715368674479e+01 2.9027905891683758e+01 2.4865223770173177e+01 -1 2 2
168 2 2.3359319197639561e+01 3.0604678848346758e+01 2.4523178652998791e+01 -1 2 2
166 1 2.3268918430988887e+01 2.9917303604586888e+01 2.5239322225095211e+01 -1 2 2
137 2 2.1287672674747839e+01 2.9960303140378734e+01 2.3219543774473912e+01 4 1 2
136 1 2.0552625056165535e+01 2.9491179313779298e+01 2.3514784663546383e+01 4 1 2
138 2 2.0700023595021445e+01 2.9599296344632123e+01 2.4469380711930690e+01 4 1 2
76 1 3.1767626725109729e+01 3.2412368225595920e+01 2.4481425572717715e+01 3 -6 -2
158 2 3.0788568910866651e+01 3.2460390774759695e+01 2.2923384287193802e+01 1 3 0
71 2 2.6973209359254906e+01 2.8791218315830243e+01 2.3588675395004142e+01 -1 1 -5
57 2 2.7552337789741738e+01 2.9193586288814409e+01 2.5953529621266842e+01 -1 0 0
70 1 2.7753857130696119e+01 2.8677067675181284e+01 2.4168205206875758e+01 -1 1 -5
156 2 2.9987306228804840e+01 3.0170823970256329e+01 2.2272846177351049e+01 1 1 -1
106 1 2.9798693766441787e+01 2.9440972395887176e+01 2.2885689638273362e+01 1 0 -1
107 2 3.0566924904106827e+01 2.9373300545286256e+01 2.3448095247027577e+01 1 0 -1
72 2 2.8489525064458750e+01 2.9218867023116445e+01 2.3810341722719919e+01 -1 1 -5
78 2 3.2106796499855136e+01 3.1662451008238904e+01 2.5019825257266088e+01 3 -6 -2

Velocities

40 -9.3329499136972260e-01 5.6589171851607611e+00 -1.0278153970262101e+01
134 -3.6586083651090888e+01 -1.1285532379083660e+01 -3.2072253309024914e+00
41 -7.8500401993241313e+00 -2.0118956958967658e+01 4.2447927733417750e+00
114 -1.4648237633587350e+01 3.6076124378167198e+00 2.6874929951367190e+00
174 -2.5034883259079034e+01 -1.0697437658658091e+01 2.8957249675033044e+01
133 -4.2447079054551038e+00 1.0259091813111153e+01 -2.6683744309186057e+00
155 -1.1392519711164504e+00 -2.8292523246607026e+00 -1.2620707026836021e+01
154 -1.9663556427518218e+00 3.9265150809566078e+00 2.3333927269800654e+00
108 -3.7485213868279587e+01 -1.4167209219936593e+01 7.0560562068997923e+00
113 -6.7703719242406981e+00 -1.2427078483774947e+01 -1.1120654132095813e+01
75 -1.2049249096879080e+01 1.5638344475675677e+01 -9.2103279087317027e+00
1 6.7972222851197968e+00 -5.5399297321246299e-01 1.1294721590859618e+00
162 1.8347963977912563e+00 2.5166954042253838e+01 -1.3852246106025655e+01
112 -1.5860988031690701e+00 5.1594622592381834e+00 5.1885134538874818e+00
135 2.1694119863311808e+01 1.4105447267382564e+01 -7.9923968437302486e+00
15 -4.0852346609187471e+00 9.5285172659193300e+00 -3.2482453212180459e+01
13 4.1793693393606794e+00 1.3689743462694359e+00 -5.5228665064721572e-01
14 -1.0851332975447900e+01 -8.8319452300978867e+00 -3.6385793710823876e+01
73 1.7879731144144415e+00 -1.5866709805153265e+00 9.6578822253723438e+00
74 7.2393337013908476e-01 4.0112700229592080e-01 5.0927569607676794e+01
3 -2.1652409185279758e+01 1.9856110205013504e+01 -1.6866723715173336e+01
98 -7.6608151570763550e+00 1.9516574252112489e+00 -1.4307571681642390e+01
186 8.7616444028390461e+00 -1.5118886652012840e+00 6.0564317285012939e+00
173 1.3700892371427610e+01 -2.6700733124939116e+01 -4.2976237298698603e+00
172 -1.9024387871051831e+00 6.8610294948420627e+00 -1.7357889178077586e+00
85 5.5535395838947776e+00 -1.1379523684466088e+01 3.9410600167239807e+00
20 -8.6836327525159582e+00 1.2546119530587546e+01 1.7890722660208095e+01
19 -2.6380650232520901e+00 1.8185740116228450e+00 4.8623141317863849e+00
86 -1.6727011421656915e+01 2.7514188901261416e+01 -2.2541761711792070e+01
87 3.7910535476920067e+01 -9.3107519101874958e-01 1.6184207756248721e+00
21 -2.0591379578996296e+01 8.9105177231322870e+00 -2.1234218605346424e+01
180 7.6685307094354398e+00 -1.9077569755793409e+01 4.6003204648644918e+00
150 -2.1031471571429217e+00 -1.1051066289069167e+01 1.3094940650176101e+01
170 -6.4935976044644708e+00 -3.6918950719878847e+00 8.0378528776378211e+00
169 -1.0941087195952383e+01 -3.4267185080002935e+00 5.6204430902489761e+00
26 9.8260869551437739e+00 -5.7749981099736782e+00 -8.6222775573592969e+00
25 -1.1803615627545467e+00 -9.6343936804035069e-01 -3.6846489756403482e+00
51 -3.7377609231873121e+00 4.6524862072172430e+00 4.3361967349506124e+01
83 -5.7827216934272005e+00 1.0834056067520564e+01 -2.4160047645027722e+00
148 -6.5801775444104766e+00 5.8069665459871596e+00 -4.2184744196938100e+00
149 1.6439007539225869e+01 -4.9330540016720255e+00 -3.5644835505963939e+00
82 -5.2400962577502890e+00 -5.6385659067540130e+00 7.0408865769388396e-01
36 3.7349381821803753e+01 1.3708389335468196e+01 -9.1518355389217998e+00
121 5.6775794487649138e+00 -4.2142282406677385e+00 2.9522451758909334e+00
130 1.3963473447190615e+00 -2.3780808823951052e+00 2.6936528331721110e+00
99 -1.8646894652563347e+01 -2.2575254126152032e+01 5.7872486890742243e+00
42 4.0471514626993148e+01 -1.1238895522973795e+01 -1.3854224807339717e+01
5 -1.0135666916964372e+01 2.2140285030099342e+01 -1.9263963699089786e+01
28 2.7915846020933923e+00 -1.3638041762616260e+00 1.9812912624752097e+00
29 1.3009183027102775e+01 -8.2513396245842525e+00 -2.8210040046687293e+01
4 8.2819581438106944e+00 -7.1269771145690592e+00 1.4135923204166769e+00
6 1.9243787415287237e+00 -3.3148481294545078e+01 -7.0650572632635980e+00
67 4.5320057920146324e+00 4.3265673462654393e+00 -1.0691725839449280e+00
69 -2.0877137256113460e+01 -4.9472924684935125e+00 2.2953840103262820e+01
184 -3.0059502015124434e-01 -4.9625427014384158e+00 1.2310823889930926e+00
185 1.1377603198682763e+01 -5.5218075490316316e+00 7.7547418419398930e+00
119 -3.4898428564207784e+01 2.8899901831963195e+01 4.6002337938072193e+00
68 -4.0104978810889813e+00 5.5275370583552812e+00 -8.2922231572976983e+00
80 9.8960100372528581e-01 -3.7105359784269840e+00 -1.0817062431649793e+01
97 3.2769538513593821e-01 2.1281987741033381e+00 7.0668248543852412e+00
23 -1.1393922955067158e+01 7.0368384371770292e+00 1.5984085171724811e+00
171 5.6302446711991978e+00 1.5849494445074269e+01 1.6871135808358073e+01
22 1.4507420190080473e+00 -3.6325228229635698e-01 2.5595610016460441e-01
24 1.2960255167537234e+01 1.2445164136241852e+01 -1.7377009147690408e+01
79 -5.8600586452272863e+00 3.4597127510184804e+00 -3.4649714262283342e+00
131 -9.4354629013382585e+00 -2.2228467334266423e+01 -1.5045411029079238e+01
160 -2.2418116811488158e+00 -9.9304046785391069e+00 2.0335486948880648e-02
161 -2.6279419703871721e+01 -2.4611772977435471e+01 -1.4071814044656135e+01
95 2.0028962944552511e+00 3.1290764296810640e+00 1.8604956107176196e+01
96 1.0634259949780017e+01 7.9066498200500348e+00 -3.4507607862759535e+00
125 -2.8349526679822119e+01 1.1265477067414741e+01 9.6823541486756426e+00
124 -4.2029758437202025e+00 -2.8462150569772988e+00 2.8363240781977690e+00
126 -4.8570355034997368e+00 -1.5776216457079347e+01 -1.8287311167825337e+01
144 -1.2649954622173945e+01 1.5755460734848141e+01 -6.8526778495746576e+00
143 1.1692195554800788e+01 3.6690906749079639e+00 -1.4015305456791334e+00
142 2.4407217571947587e-01 2.0342913767083206e+00 4.8024165750378520e+00
94 -3.0314943362802831e+00 2.8329063649718020e+00 1.8448167025912934e+00
89 2.8444513652066309e+01 3.9446689631727327e+00 4.9823475539396780e+00
55 -2.6524611812624244e+00 2.7454900761449869e-01 -5.8215343264960646e+00
33 -2.5616382252456930e+01 4.0578282518380767e+01 -7.6069293127672681e+00
7 3.8732535444396063e+00 -7.2226441970475941e+00 -2.1173814260209216e+00
56 -3.3837899545323302e+00 7.7138578023076469e+00 4.4253975545766657e+00
8 -4.1705249181381765e+00 1.5432850954169542e+01 1.1881847924785962e+01
181 6.6320382365649539e+00 3.7475695734764272e+00 -7.1164139229686549e+00
183 -1.0072503920344428e+01 -3.2828973009306641e+00 1.2862409256001580e+01
159 2.5902119145679194e+01 -1.2232532081641196e+00 2.4447497217093812e+01
140 2.9291496058673509e+01 -4.2813045987149323e+00 8.4006527167881870e+00
66 1.2101915780820015e+01 -2.4127963089932631e+01 -1.9120777228964602e+01
141 -1.9074494929999584e+00 1.6338632103955113e+01 3.2811164032797613e+01
139 -1.0019050508745793e+00 -5.0117924108808758e+00 4.5266725245092747e+00
178 4.9431345759394169e-01 2.7078669153530890e+00 6.3633546317629153e-01
179 -1.6346302913319985e+01 -2.4626845071939758e+01 8.3222304979240747e+00
123 -2.0310511934783165e+01 -1.3633126791037836e-01 2.8545666061887132e-01
146 7.6582390092919246e+00 5.5298059628530769e+00 -9.6227811619755876e-01
132 2.4229404703794877e+01 -9.8890177167704874e+00 -2.7607385028840174e+01
62 2.2264656550034871e+01 -2.6316347485210038e+01 -2.7583935413359058e+00
145 2.7684600519447655e+00 -5.0073950147901352e+00 -1.5765502448702549e+00
187 3.2680609133437275e+00 5.8908052378499249e+00 -3.1807372619305441e+00
64 -6.4924095085024387e+00 5.6041658578833200e+00 -1.3034667836446656e+00
61 -1.3466013492739295e+00 2.4903409704677387e-01 3.0103000130472934e-01
60 3.1894879315529831e+01 1.0253443899538892e+01 8.4442280760066613e+00
182 -2.3280946786226750e+01 -4.2915881554977400e+00 -1.0134916903408925e+01
147 -6.5899872966886353e+00 -2.2284532991093652e+01 -1.4066078416979877e+01
188 -2.3612619263797630e+01 1.5584682795264751e+01 -2.8585131221148825e+00
122 6.5783792576881179e+00 -3.3787194076369779e+01 -7.7817950732501728e+00
46 2.5530353221004627e+00 7.4154713947636819e-01 5.3670566108936490e-01
47 1.7285763618488620e+01 -2.4023375390447651e+01 7.5338514184738345e+00
16 5.3226277835481672e-01 -3.9481102160793113e-01 -6.3519243873412607e+00
18 -3.0457748828863642e+00 -1.9577937691891816e+00 -1.6299855305441231e+00
48 -1.2940424868692030e+01 -1.2074868353574502e+01 -7.6273623479591413e+00
65 -3.0570274416208036e+00 -3.2248912812624937e+01 3.4430346349379782e+01
30 2.4436060753723506e+01 1.5753929602817276e+00 -6.3867828240223190e+00
128 5.9463118345187382e+00 2.3512241344949448e+01 -4.1936560769321982e+00
120 -1.3533803392776296e+01 3.2325614928538045e+01 -3.7716172189600470e+00
118 7.0732851045391483e+00 8.3702736411338463e-01 1.0297631692898528e+00
84 1.2864368432037585e+01 -2.4557777379679830e+01 -1.6601862500344282e+01
110 -4.2136141240729465e+01 4.1691386472192296e+00 -1.6472346400828553e+01
111 3.8291012090804919e+01 8.8085684129907378e+00 1.8417351826697736e+01
109 -1.2475008714308526e-01 -2.4015496508189860e+00 3.3061593523186765e+00
35 2.5994275638060572e+01 1.4470388487441987e+01 -5.0795131414930816e-01
189 1.5500655066794094e+01 -1.8032570091527344e+01 4.6107199979696478e+00
127 -3.0683343447139584e+00 4.7818391482475553e-01 -1.5902729354610117e+00
105 6.7970707831662560e+00 2.3823282591274452e+01 1.8563296966522824e+01
81 8.2867265706318882e+00 8.5647072922851972e+00 1.7542825810359830e+01
32 -8.5239602666715779e+00 -1.9909360240930885e+00 3.5309823604153443e+01
9 9.5056084046118841e+00 8.3298281610144311e+00 -2.5713124337041798e-01
31 -3.0508709423053668e+00 8.0441001627404116e+00 -7.4749060832658811e+00
34 5.5325573711544767e+00 -1.2389933317769975e+01 -6.8346284030560707e+00
17 -2.4721992285874990e+00 -1.4226626255447586e+01 -4.0209012848430055e+00
157 3.0030813636438167e+00 3.0296524567699468e+00 2.3790700561377145e+00
2 2.0397897003423580e+01 -1.7231470778762773e+01 -1.7561605645509861e+00
27 -6.0470114754019351e+00 -1.0419882847267411e+01 4.1987045269560150e+00
50 1.1302354715615724e+01 2.5152231860787890e+00 -2.2490077791101363e+01
49 -4.0777396885812847e+00 -5.1382063943832135e+00 -8.9941677831002753e-01
165 1.4727663569039370e+01 8.8474362866845790e-01 -1.1487794934162739e+01
77 1.4517344038808528e+00 3.0172121199391047e+01 2.3929383975586980e+01
163 4.4803466481129917e-01 -4.6747159480545459e+00 -4.9779231499558314e+00
164 1.5853094526365561e+01 -9.8699364287140146e+00 9.6326620609427280e+00
117 -8.7900160777572829e+00 -9.0023784333138028e+00 2.0797310895782026e+01
115 1.7953085407822822e+00 -2.2695533289150246e-01 -1.0334586551732025e+01
88 -2.5487822991543880e+00 2.8833799445019217e+00 -1.6100438032155491e+00
177 -1.6976886476624170e+01 -3.8377161477420842e+00 -8.7650594927062144e+00
151 2.1778089115544000e-01 -1.2902373529344431e+00 2.8608711666384323e+00
103 -1.6523958380868009e+00 -5.7253935299467251e+00 -2.0107402801266852e+00
90 -1.4148856661811033e+01 -1.6640271771650341e+00 -7.1869665548593165e-01
152 1.6057987544222158e+01 -8.5124402508931905e+00 4.3407112241422885e+00
39 1.6654017028922372e+01 1.0890661328429736e+00 1.0241061380121666e+01
37 -2.2735511251599081e+00 1.6882416114562362e+00 7.6886622118672143e+00
38 -3.5836012294161499e+00 -7.5976105383253252e+00 1.9176791352385582e+01
129 -8.3557849369441222e+00 2.4541919509139028e+01 7.2175746730964834e+00
92 -9.1198962483666488e+00 -2.0631188489698154e+01 -7.1302329074928252e+00
104 4.3997651682768755e+01 -1.7220396532369026e+01 -2.2085871883863707e+01
153 -4.9863242537799239e+00 -4.0530751805073617e+00 -1.4928998691474195e+01
175 1.2807704249284193e+00 5.2435173323220221e+00 -6.3842129398585330e+00
176 7.7504935892641864e+00 2.2813091048633453e+01 -2.8942778623603607e+00
44 2.0691962750686816e+01 1.2987982061552403e+01 -1.9621840663073925e+01
58 4.2111223757761591e+00 4.8673610805774743e+00 4.1643518954413841e+00
43 -3.2120419360227057e+00 -3.6688136118652932e+00 8.5577122899074229e+00
63 -5.4197996925359480e+00 1.2422167087263223e+00 2.2860540609243088e+01
116 9.6660334802799444e+00 -1.2710486401715080e+01 8.9665255850486130e+00
45 3.8071476234469863e+01 4.0734986400664539e+00 3.7241039696486911e+00
59 3.6837169298648318e+00 -1.7782587372474968e+01 3.3156807245404423e+01
12 1.1229323143095447e+00 1.2629034916770935e+01 -3.0704880574002669e+01
54 -1.6622752220143823e+01 -4.0257837015943867e+00 -6.3570888956346367e+00
11 -1.2243723366713917e+01 1.6834800786357373e+01 7.7270148918767747e+00
10 -3.8197665194349670e+00 2.7929883785418954e+00 3.3269959415490269e+00
93 1.2069058033140966e+01 2.0892048381168774e+01 2.4427291853249169e+01
91 -2.0146946572772970e+00 -4.1085998630472054e-01 5.1358727052222379e+00
53 1.8033022508775861e+01 -3.0714728649422902e+00 1.1075955374171834e+01
52 -1.8544708308226663e+00 4.0167782255219224e+00 -1.2006536850890139e+01
101 3.4748859943591690e+01 -2.8029436991198533e+01 7.8920835710032144e-01
100 8.6010684405436795e+00 6.7000616315359096e-01 -8.1035482103510876e+00
102 -4.2705097679848230e+00 -1.4434766710907160e+01 -9.4311193203350516e+00
192 8.1942289468337979e+00 -2.0766691869939673e+00 -9.1844987753220799e+00
190 -5.9555311855461888e+00 -4.2665943714730048e+00 -1.0445054363868418e+00
191 -2.0351579801603954e+01 -1.1160384527884505e+01 -2.9942402422884151e+00
167 -1.0758460856711084e+01 -2.6015372253172514e-01 1.0978450873059806e+01
168 -2.6770109154768960e+01 1.2911771957094405e+01 1.1063230632261490e+01
166 3.0078023033385657e+00 4.2850435385227712e+00 2.2860374115235342e+00
137 -1.6175749007186404e+01 1.7839921661985556e+00 -2.5906009377914012e+00
136 -4.1389373232281113e+00 -7.7709293726497397e-01 -8.3819452032227133e+00
138 -4.0402025768241290e-01 -2.8924263732776527e+00 4.5346081711556456e+00
76 -1.9080642754021007e+00 6.4992276419967565e-01 9.8838110075088856e+00
158 2.7834309843284164e+01 3.2865311968150692e+01 -6.6401679205966104e+00
71 -2.0792529311984190e+01 1.8196012289066420e+01 -2.5596546033372869e+00
57 -1.2761670141674177e+00 -1.6102799474197809e+01 8.9655232498090882e+00
70 -8.7784558099742771e+00 1.6317313365805253e+00 5.5647374592099146e+00
156 2.0207343552350597e+01 -2.6376836432074967e+01 -7.6263767066240025e+00
106 4.9138488920327097e+00 1.8103753047994069e+00 5.9322059727929668e+00
107 2.7951205576999431e+01 1.1005683436803093e+01 -6.2196729716815051e+00