LAMMPS data file via write_data, version 2 Jun 2020, timestep = 12723000

648 atoms
2 atom types

2.0059157899974164e+01 3.8849842100021284e+01 xlo xhi
2.0059157899974164e+01 3.8849842100021284e+01 ylo yhi
1.3863157899975899e+01 3.2653842100020292e+01 zlo zhi

Masses

1 15.9994
2 1.00794

Atoms # atomic

86 2 2.4462730050644343e+01 2.2466730237415849e+01 1.4933160463949733e+01 0 -3 1
85 1 2.3912443802510172e+01 2.2596983361050789e+01 1.5696187505863813e+01 0 -3 1
87 2 2.3553386578481259e+01 2.3522990842452376e+01 1.5846505152120505e+01 0 -3 1
18 2 2.2447254460433310e+01 2.1714190931266433e+01 1.4767053487952088e+01 -2 -2 2
17 2 2.1076070547958714e+01 2.1066566056087620e+01 1.4885426583567529e+01 -2 -2 2
511 1 2.2076449302076121e+01 2.4487101125734736e+01 1.6819380753018276e+01 1 3 0
176 2 2.1021355579157525e+01 2.3855787471545252e+01 1.8027908507068531e+01 0 0 2
167 2 2.4646176991283824e+01 2.1992419585903793e+01 1.7169271148991339e+01 -1 1 -4
16 1 2.1720276988200066e+01 2.1416993336964904e+01 1.4223264461504437e+01 -2 -2 2
286 1 2.0099888563202381e+01 2.0269538726639336e+01 1.5961806375238455e+01 -1 2 1
166 1 2.5302025763315886e+01 2.1482300713670753e+01 1.7699650135163292e+01 -1 1 -4
168 2 2.5976223925595736e+01 2.2151840195858814e+01 1.7589076632116281e+01 -1 1 -4
379 1 2.7092887887593008e+01 2.3671450640910688e+01 1.7067197990370545e+01 -1 3 3
380 2 2.7655946526859580e+01 2.3372000960789283e+01 1.6388544549608248e+01 -1 3 3
381 2 2.7657261832554912e+01 2.3866136322393011e+01 1.7826883730625990e+01 -1 3 3
527 2 2.5277021470968037e+01 2.4368662491429426e+01 1.7542362172330616e+01 0 -2 0
558 2 2.5237386985161066e+01 2.0839318640323537e+01 1.4153837261211873e+01 -1 0 -1
291 2 2.9273850599395406e+01 2.1411670302367650e+01 1.5027069942212544e+01 3 0 2
578 2 2.7964470311966856e+01 2.0059289762299404e+01 1.5926236738681355e+01 -1 0 1
385 1 2.9144426976676407e+01 2.0523887201530190e+01 1.4717779736313968e+01 3 0 2
556 1 2.5732162598220505e+01 2.1686297539041355e+01 1.4040038459969159e+01 -1 0 -1
55 1 2.9659522397234458e+01 2.2995485308567979e+01 1.5772855089461929e+01 3 -2 1
56 2 3.0117100033469882e+01 2.2958987052651214e+01 1.6635640615892758e+01 3 -2 1
33 2 3.0127426598133866e+01 2.3569426059683320e+01 1.5150980143060885e+01 3 -2 1
183 2 3.3474544649119835e+01 2.1295040465078269e+01 1.5532214727064684e+01 1 3 -3
181 1 3.3021027568653665e+01 2.1169683261199019e+01 1.6411970971216654e+01 1 3 -3
182 2 3.2864874997348203e+01 2.2108535158378494e+01 1.6634455356419402e+01 1 3 -3
592 1 3.0759075610104492e+01 2.2705806137766888e+01 1.8238308381140023e+01 -4 2 2
236 2 3.1903203757109452e+01 2.0212007028768120e+01 1.5896224610233446e+01 1 -1 -1
292 1 3.4001894813088896e+01 2.1714942542709839e+01 1.3977119293070665e+01 0 -1 -1
630 2 3.4907253526240709e+01 2.4314644719443258e+01 1.6640229731215538e+01 2 -1 2
488 2 3.8028142479454644e+01 2.2435586728780216e+01 1.7583027175919700e+01 1 -2 -2
465 2 3.6659251048233116e+01 2.2377049382020630e+01 1.6643608243566490e+01 1 -2 -2
487 1 3.7233323470821276e+01 2.1848697295704490e+01 1.7288438215843772e+01 1 -2 -2
573 2 3.5347206590510915e+01 2.2684366530257705e+01 1.5005375746538753e+01 2 0 1
571 1 3.5965088425099339e+01 2.3127088927239825e+01 1.5607148973308401e+01 2 0 1
572 2 3.6617583799741496e+01 2.3524310920241359e+01 1.5019589496584608e+01 2 0 1
288 2 3.8243821149575041e+01 2.0771203944549512e+01 1.6463695585430941e+01 -2 2 1
409 1 3.7644713883352942e+01 2.4578194676527588e+01 1.4075754059210622e+01 3 -1 -1
645 2 3.6356441959890077e+01 2.0816777821688188e+01 1.8492214301165511e+01 -3 2 -1
512 2 2.2881063599004882e+01 2.4918082064551346e+01 1.7127354413626435e+01 1 3 0
526 1 2.4487714001544475e+01 2.4854773299359298e+01 1.7745141259488456e+01 0 -2 0
561 2 2.1565996883059203e+01 2.5247546196275614e+01 1.6360258652446234e+01 2 3 0
423 2 2.0664380899867488e+01 2.6751380032601645e+01 1.4623512374814984e+01 2 1 -1
421 1 2.0385179917351486e+01 2.6253389499448044e+01 1.5418635625347450e+01 2 1 -1
638 2 2.4559798889465103e+01 2.8145709746544611e+01 1.6319845620131222e+01 -2 1 3
496 1 2.3991195255714310e+01 2.8802915487160568e+01 1.7933274130002385e+01 -1 1 0
497 2 2.3174372474660416e+01 2.9277134257989879e+01 1.8103362044334371e+01 -1 1 0
637 1 2.4998530905018054e+01 2.8093657097661691e+01 1.5457010503623312e+01 -2 1 3
639 2 2.5593823565621413e+01 2.7340356608366985e+01 1.5490520708095607e+01 -2 1 3
358 1 2.6750881026581474e+01 2.5937271258751800e+01 1.5197526925263125e+01 0 0 0
359 2 2.7608024888869231e+01 2.6012001035809405e+01 1.4689609898729620e+01 0 0 0
360 2 2.6778247132640988e+01 2.5247022006469475e+01 1.5818952230115867e+01 0 0 0
508 1 2.8880925093937748e+01 2.6311043558612152e+01 1.3891181176838352e+01 0 -1 1
510 2 2.8963004032949389e+01 2.7061269710096362e+01 1.4486515881736935e+01 0 -1 1
133 1 3.1191728853874157e+01 2.4973483188079442e+01 1.4602328969776876e+01 3 1 1
47 2 2.9724515676737980e+01 2.7497818072438331e+01 1.8367055921302804e+01 0 1 0
139 1 3.2905819601989663e+01 2.6632110561051160e+01 1.6011579810102845e+01 1 0 0
140 2 3.2158978356307088e+01 2.6192538462023158e+01 1.5455009992636285e+01 1 0 0
141 2 3.3608663162807090e+01 2.6828598071922428e+01 1.5372786368834767e+01 1 0 0
446 2 3.1490947549740749e+01 2.7607158818660775e+01 1.7060153675820590e+01 1 0 2
445 1 3.0705616393555122e+01 2.8139249238985585e+01 1.7347928181874437e+01 1 0 2
447 2 3.0287655749185056e+01 2.8523012952147830e+01 1.6440819088019413e+01 1 0 2
574 1 2.9681582515879590e+01 2.8747236651540074e+01 1.4965128954366255e+01 0 -1 0
296 2 3.1929435759547125e+01 2.9066290024902042e+01 1.8445574130798523e+01 0 -1 -1
576 2 3.0409153774547349e+01 2.8749143413124401e+01 1.4346017055007829e+01 0 -1 0
629 2 3.3909209624512570e+01 2.5534446539129256e+01 1.6769158905334411e+01 2 -1 2
134 2 3.0324971184414458e+01 2.5387713064497294e+01 1.4265804859544708e+01 3 1 1
227 2 3.2693771622319701e+01 2.9087284389725312e+01 1.4107215884491435e+01 -1 -1 2
422 2 3.8725748383154937e+01 2.6823030813957740e+01 1.6039062599092727e+01 1 1 -1
628 1 3.4398780911910762e+01 2.4825257474480992e+01 1.7281653049498928e+01 2 -1 2
315 2 3.8302904610873043e+01 2.5146476138717702e+01 1.4533924516872700e+01 3 -1 -1
217 1 3.7894849893399254e+01 2.8107941070816040e+01 1.7009957048854329e+01 -2 -1 1
411 2 3.8301726777092668e+01 2.8472065761951711e+01 1.7771930398560755e+01 -1 0 1
218 2 3.7261583768442421e+01 2.8690562680706808e+01 1.6585680997617455e+01 -2 -1 1
308 2 3.5580814359329210e+01 2.5706643121703820e+01 1.8115812344005370e+01 1 0 -2
309 2 3.6610389661193928e+01 2.6782685123767063e+01 1.8113010183367152e+01 1 0 -2
234 2 3.5803136707410374e+01 2.6983518007862852e+01 1.4095119241404904e+01 0 -1 1
233 2 3.5282124304963112e+01 2.8078849887728989e+01 1.5089877047381949e+01 0 -1 1
232 1 3.4959476697228602e+01 2.7378602210904262e+01 1.4421167724680169e+01 0 -1 1
2 2 2.3627665567991517e+01 3.2839140744530539e+01 1.6183242199553611e+01 -1 1 0
82 1 2.1911586086619046e+01 3.1407662593318740e+01 1.8332545615838402e+01 0 0 -1
1 1 2.3986063525676322e+01 3.1922295971457721e+01 1.6267808733819276e+01 -1 1 0
195 2 2.3712914838812043e+01 3.1576814798194725e+01 1.7100830745000902e+01 0 2 0
12 2 2.1283086078549349e+01 3.1762726033594660e+01 1.7708575888050294e+01 0 0 -1
35 2 2.1440917973453448e+01 3.0874996315304767e+01 1.4879888794946256e+01 0 -2 2
34 1 2.0756242319578867e+01 3.0927535928375669e+01 1.4183902572578463e+01 0 -2 2
231 2 2.0076623397883733e+01 3.3251429909508474e+01 1.5994833616923300e+01 -1 -1 2
229 1 2.0626019928422025e+01 3.3095563701810477e+01 1.6797331851215155e+01 -1 -1 2
230 2 2.1331517201049131e+01 3.3716575940390989e+01 1.6498752063863542e+01 -1 -1 2
642 2 2.5717764962946713e+01 2.9695996908543997e+01 1.5077509865524775e+01 1 1 1
402 2 2.5963261510478588e+01 3.2985137224658239e+01 1.7273730061238858e+01 -1 0 1
641 2 2.5403707589992148e+01 3.1141685925322307e+01 1.5620220352499963e+01 1 1 1
640 1 2.6002394142807958e+01 3.0686352782043755e+01 1.4974728595940771e+01 1 1 1
400 1 2.6806858605695648e+01 3.2635302295062338e+01 1.7558208767335241e+01 -1 0 1
401 2 2.6505683963374029e+01 3.1706377409940423e+01 1.7726674915363240e+01 -1 0 1
192 2 2.8172643844250231e+01 3.3159959114518095e+01 1.6334752327097934e+01 0 -1 -1
190 1 2.9017742466241366e+01 3.3258541164620524e+01 1.5858173242351821e+01 0 -1 -1
303 2 2.7526133276267259e+01 3.0983013431177717e+01 1.4782979868754525e+01 -2 2 0
302 2 2.8824268016674541e+01 3.1807506992702340e+01 1.4909212021916597e+01 -2 2 0
301 1 2.8495318145313831e+01 3.0979240927743206e+01 1.4488497994689213e+01 -2 2 0
191 2 2.9024242934125375e+01 3.4126892462166090e+01 1.5369779167134226e+01 0 -1 -1
575 2 2.9105846273567227e+01 2.9527602955307302e+01 1.4751515863744203e+01 0 -1 0
473 2 2.5525132054028845e+01 2.9926171103415342e+01 1.8467162927670653e+01 1 -1 -2
209 2 2.5743275499173215e+01 3.2763749193042408e+01 1.4499836750088997e+01 3 0 0
208 1 2.5606367446320725e+01 3.3618402012738471e+01 1.4054859609709782e+01 3 0 0
239 2 3.0896594065293122e+01 3.2831911434364926e+01 1.6370557393561231e+01 1 2 -1
333 2 3.3594597465413045e+01 3.0787699023808727e+01 1.7647746670334691e+01 1 2 1
238 1 3.1621360055202022e+01 3.3357839290247142e+01 1.6748640501171270e+01 1 2 -1
579 2 3.8537405812569780e+01 3.2211756944633706e+01 1.4149051541162875e+01 -1 1 0
80 2 3.4400753758138457e+01 3.3800189156200986e+01 1.4203701625614677e+01 1 0 2
475 1 3.6029590625672419e+01 2.9721073266470604e+01 1.5821272090774146e+01 1 0 1
476 2 3.6313526158568138e+01 3.0239236467522304e+01 1.5063513615344396e+01 1 0 1
477 2 3.5370020676820808e+01 3.0172022795141089e+01 1.6420062528595366e+01 1 0 1
331 1 3.4475739889755168e+01 3.1095261981895781e+01 1.7391288974862636e+01 1 2 1
332 2 3.4792886927141787e+01 3.1516026019091512e+01 1.8267384342962391e+01 1 2 1
51 2 3.5123085046221831e+01 3.3024711471071797e+01 1.6046700432297197e+01 1 -3 -1
74 2 3.6334581629768223e+01 3.2949793410871166e+01 1.5034928432647314e+01 0 -3 -1
73 1 3.5502782476884597e+01 3.3471909354893732e+01 1.5315163213604766e+01 0 -3 -1
457 1 3.7903166291007892e+01 3.2914173284756799e+01 1.4230170988392766e+01 -1 0 0
349 1 2.2943504130517095e+01 3.4483155661699691e+01 1.5946184509488358e+01 2 -1 1
351 2 2.3481363685542028e+01 3.5159398867594405e+01 1.6397307062864993e+01 2 -1 1
164 2 2.2273121356728605e+01 3.7127738771800594e+01 1.7221320913185963e+01 2 -2 -2
163 1 2.1514383654990393e+01 3.7563727300746706e+01 1.7713655453341818e+01 2 -2 -2
287 2 2.0741653133406665e+01 3.8700064713469622e+01 1.6563733147141352e+01 -1 1 1
495 2 2.4251159525042755e+01 3.7036238036697107e+01 1.7883438153476966e+01 0 -4 1
493 1 2.4217414411927724e+01 3.6440732261728364e+01 1.7132758628392832e+01 0 -4 1
350 2 2.3026691806936682e+01 3.4534057261361191e+01 1.4942507134097427e+01 2 -1 1
461 2 2.3957524039689400e+01 3.7838720450868074e+01 1.4072677462436554e+01 0 -1 0
165 2 2.1401630714192407e+01 3.6946291031457221e+01 1.8496076417583257e+01 2 -2 -2
494 2 2.4830086815565572e+01 3.6723486710760724e+01 1.6496651943032536e+01 0 -4 1
555 2 2.6422449924497649e+01 3.8753068725127520e+01 1.6114664229926120e+01 0 -1 1
577 1 2.7278081359701950e+01 3.8306653980200323e+01 1.6402311453179035e+01 -1 -1 1
354 2 2.9026005756685414e+01 3.6223197061147410e+01 1.4725744881024580e+01 0 1 -1
352 1 2.8544361073643145e+01 3.5932291497515536e+01 1.5461503860130019e+01 0 1 -1
353 2 2.7945335445692201e+01 3.6668525677022465e+01 1.5726663009937647e+01 0 1 -1
119 2 2.7314732174920721e+01 3.8500105327772900e+01 1.8507387340626366e+01 0 -1 -2
460 1 2.4807987917929758e+01 3.7949451209794574e+01 1.4467257241805177e+01 0 -1 0
206 2 2.9379527247160997e+01 3.5125859888306934e+01 1.8202657869986087e+01 0 0 -2
462 2 2.5383098096676250e+01 3.7275312533901683e+01 1.4122295056591254e+01 0 -1 0
320 2 3.2115918395465499e+01 3.5002079709026887e+01 1.5540649052984945e+01 0 0 2
207 2 2.9842855452919807e+01 3.5932734321063073e+01 1.7038893411527912e+01 0 0 -2
205 1 3.0196596602317989e+01 3.5508498706538717e+01 1.7848280503874339e+01 0 0 -2
338 2 3.3519765630260096e+01 3.8322447661309539e+01 1.7297710878468546e+01 -2 2 3
337 1 3.4028680500913765e+01 3.7597690377635715e+01 1.7717934217405645e+01 -2 2 3
297 2 3.2207369148049537e+01 3.6577173838146237e+01 1.5661139959395797e+01 0 0 2
319 1 3.2423641770938325e+01 3.5798902789650981e+01 1.5068855494175702e+01 0 0 2
237 2 3.0535089617885845e+01 3.8294474383455864e+01 1.5401179368383994e+01 1 -2 -1
235 1 3.1368855683457596e+01 3.8131457351580366e+01 1.5922617135747220e+01 1 -2 -1
285 2 3.0678267861992715e+01 3.8687063390970081e+01 1.7915206052431500e+01 -1 0 0
584 2 3.3157589189775436e+01 3.6482497386209729e+01 1.8530756903239237e+01 2 -2 0
240 2 3.1214039346989324e+01 3.4164347183058709e+01 1.7092302956205071e+01 1 2 -1
243 2 3.4871107621033659e+01 3.8014340617481409e+01 1.8029433154600905e+01 -2 2 3
429 2 3.8231410706851705e+01 3.4526571286718365e+01 1.8095431044479628e+01 1 -2 1
428 2 3.7008484642350439e+01 3.5163361446221451e+01 1.7492816952179247e+01 1 -2 1
615 2 3.5368545642409373e+01 3.5407596544821132e+01 1.5634751782519793e+01 2 -1 5
613 1 3.5720315141093423e+01 3.6110554127574147e+01 1.6164773484071940e+01 2 -1 5
614 2 3.5022963134966702e+01 3.6555547597889039e+01 1.6653797190724923e+01 2 -1 5
242 2 3.7541142088423570e+01 3.8328810461067746e+01 1.4406611279819082e+01 -2 -2 -1
363 2 3.6748845323131533e+01 3.7173152693964141e+01 1.4907601773597531e+01 -2 -1 -1
241 1 3.7008764784435201e+01 3.7536314624452977e+01 1.4079223075161799e+01 -2 -2 -1
427 1 3.7370773610682249e+01 3.4814684554926885e+01 1.8339144896695689e+01 1 -2 1
123 2 2.4434968928721034e+01 2.0311642009407048e+01 1.8692897108548966e+01 0 -1 1
554 2 2.2413083650153656e+01 2.2598668811148489e+01 2.1066430355520467e+01 -2 -2 0
553 1 2.2021756287113721e+01 2.2000455619878050e+01 2.0408645167285691e+01 -2 -2 0
459 2 2.1323026549137914e+01 2.2372697103764995e+01 1.9861713174849804e+01 -2 -2 0
61 1 2.3016996658798124e+01 2.3765343914532775e+01 2.2363675642121663e+01 -1 1 -2
105 2 2.1069948353821061e+01 2.0745870159839466e+01 2.0988731662806284e+01 -1 0 3
63 2 2.2507419473530597e+01 2.4209399065331429e+01 2.3089449129525008e+01 -1 1 -2
175 1 2.0435414302003323e+01 2.3375273817586976e+01 1.8618354492191745e+01 0 0 2
408 2 2.4244167734137530e+01 2.4186491621186679e+01 2.0887036099196397e+01 5 2 2
528 2 2.4258892354687397e+01 2.4365214845311492e+01 1.8612140465863209e+01 0 -2 0
127 1 2.0659593135807903e+01 2.0102843758879462e+01 2.1554812704611724e+01 -1 0 3
590 2 2.4311513990785102e+01 2.0513296295482984e+01 2.1038747185859759e+01 0 4 2
62 2 2.3402582769805669e+01 2.3000929230503420e+01 2.2853177454274459e+01 -1 1 -2
76 1 2.8624036257459295e+01 2.4347356220174689e+01 1.9081352860366867e+01 0 2 0
78 2 2.9372422067462942e+01 2.3780692886196732e+01 1.8806896247737054e+01 0 2 0
77 2 2.8167859031119583e+01 2.3959978859181490e+01 1.9827623596080798e+01 0 2 0
407 2 2.5292394620928953e+01 2.3309722812020915e+01 2.0131620990889189e+01 5 2 2
406 1 2.5018499565168959e+01 2.4230847447065283e+01 2.0313906797379943e+01 5 2 2
499 1 2.7002006739356474e+01 2.2189091798741373e+01 2.0264006839308035e+01 1 1 -1
501 2 2.7023291915327370e+01 2.1339839046824430e+01 1.9740354926588747e+01 1 1 -1
500 2 2.7189981815440785e+01 2.1858742929847025e+01 2.1149625027136224e+01 1 1 -1
257 2 2.6315860273048184e+01 2.4650809664500819e+01 2.1451235337365727e+01 0 -2 0
260 2 2.8712908686649993e+01 2.4718085362787988e+01 2.2652484203017021e+01 -1 -2 1
268 1 2.7424922064188411e+01 2.0393427260825032e+01 2.2376769895130213e+01 -2 1 1
269 2 2.6534484458370557e+01 2.0127508060117830e+01 2.2094914063528496e+01 -2 1 1
335 2 3.3492862516500495e+01 2.4166657440139865e+01 1.8609650668202214e+01 1 1 3
593 2 3.0635307567831823e+01 2.1860491711168745e+01 1.8766876301644761e+01 -4 2 2
594 2 3.1465715111893825e+01 2.3186170769419050e+01 1.8660462322836224e+01 -4 2 2
283 1 3.0445103734432010e+01 2.0134034002066794e+01 1.8822745011103191e+01 -1 1 0
259 1 2.9596777496029851e+01 2.4609000621802149e+01 2.3065991519859587e+01 -1 -2 1
334 1 3.2876975511678722e+01 2.3775020978874423e+01 1.9229494665682857e+01 1 1 3
255 2 3.2979406427625129e+01 2.0869467961155241e+01 2.1887064057642721e+01 -1 0 -1
253 1 3.2360958696079301e+01 2.0341657627928935e+01 2.2393024116957996e+01 -1 0 -1
471 2 3.3748443325456101e+01 2.2332607088915946e+01 2.0241333387161678e+01 -1 2 2
336 2 3.3040377164603910e+01 2.4285873219858818e+01 2.0048120686474679e+01 1 1 3
155 2 3.3830239439744240e+01 2.4598302388180805e+01 2.3057578596839679e+01 2 3 -1
469 1 3.4288159562752334e+01 2.1604431453504798e+01 2.0657436034416747e+01 -1 2 2
153 2 3.8791141672409267e+01 2.4047869045083107e+01 1.9151752503928535e+01 -1 0 2
470 2 3.5089441885729258e+01 2.2103205160107613e+01 2.1096099204919323e+01 -1 2 2
52 1 3.6156085540260165e+01 2.2745033371900131e+01 2.2134420770295360e+01 1 1 -2
54 2 3.6767029673347110e+01 2.2114000950325440e+01 2.2683423541626677e+01 1 1 -2
644 2 3.5348967922765816e+01 2.0926627103902774e+01 1.9705108948913626e+01 -3 2 -1
643 1 3.5953333283214405e+01 2.0268407296553178e+01 1.9221106708976151e+01 -3 2 -1
203 2 3.7006393353289397e+01 2.4203610986446250e+01 2.1430867002681172e+01 0 4 -2
53 2 3.5594093037284978e+01 2.3293582719747860e+01 2.2800516387252888e+01 1 1 -2
513 2 3.7937892379004715e+01 2.0340972528249285e+01 2.2881082020774492e+01 -3 1 -1
498 2 2.4090231771275018e+01 2.8341257384445960e+01 1.8769201215370170e+01 -1 1 0
453 2 2.0994423149260225e+01 2.6894192875793916e+01 2.1400641894967936e+01 1 0 1
395 2 2.2853296926802884e+01 2.8500072293579528e+01 2.1174022929410487e+01 -2 2 1
394 1 2.2545118712335555e+01 2.7958787445733741e+01 2.0427834353152441e+01 -2 2 1
324 2 2.1864542970970497e+01 2.8518302099168892e+01 2.0101476081049320e+01 -2 2 1
451 1 2.0454369116516339e+01 2.6367752219980773e+01 2.2041135998235330e+01 1 0 1
520 1 2.0261246584307518e+01 2.9266559920072581e+01 1.9089043929011154e+01 -5 2 0
48 2 2.9041937161579540e+01 2.6069501281590046e+01 1.8940282878625823e+01 0 1 0
256 1 2.7080712754873602e+01 2.4868601164555059e+01 2.2039908441931484e+01 0 -2 0
46 1 2.9419316210802506e+01 2.6957472616995169e+01 1.9178408558968879e+01 0 1 0
137 2 2.6061994203674686e+01 2.6902588282312784e+01 1.9909077461724223e+01 -1 -2 -2
138 2 2.5031367584924755e+01 2.6244545982459957e+01 1.8883015241001324e+01 -1 -2 -2
136 1 2.5733765271435843e+01 2.6890212720033482e+01 1.9022720639908620e+01 -1 -2 -2
432 2 2.8214533577213697e+01 2.8297722389584507e+01 1.9960673466953260e+01 2 -3 2
596 2 2.7610683268614565e+01 2.8103854053772988e+01 2.2192026342621837e+01 0 2 0
430 1 2.7795634265795965e+01 2.8964878153255086e+01 2.0546483664583285e+01 2 -3 2
258 2 2.6572877342174635e+01 2.5373674453218833e+01 2.2729118552359850e+01 0 -2 0
595 1 2.7645019325349036e+01 2.7823032948968752e+01 2.3117365712507077e+01 0 2 0
295 1 3.2714091202564781e+01 2.9423744611558245e+01 1.8911429034693445e+01 0 -1 -1
261 2 3.0137204051504952e+01 2.5222475542011516e+01 2.2580383449952695e+01 -1 -2 1
306 2 3.0202687408741774e+01 2.6336256470654472e+01 2.0777234770712955e+01 1 1 0
304 1 3.0641721273928162e+01 2.6414119794201124e+01 2.1643568910569268e+01 1 1 0
305 2 3.0505520831123057e+01 2.7334295309574582e+01 2.1972384556804553e+01 1 1 0
362 2 3.2229148680460014e+01 2.5640718795417811e+01 2.1431662243989233e+01 0 0 1
361 1 3.3242354614621696e+01 2.5302700310159072e+01 2.1285887387148733e+01 0 0 1
144 2 3.3958234503089244e+01 2.8365372851973834e+01 1.9924797133108012e+01 0 1 0
339 2 3.3551187183207297e+01 2.6148673244330780e+01 2.0862836871921743e+01 1 0 1
490 1 3.1674512188257573e+01 2.9268990981494092e+01 2.3143353449469299e+01 -1 -1 -1
307 1 3.6202117172436168e+01 2.6203151029466497e+01 1.8705258519374809e+01 1 0 -2
202 1 3.7436257712459273e+01 2.4904307816848576e+01 2.0872487363159205e+01 0 4 -2
452 2 3.8544113617423427e+01 2.5765065349329102e+01 2.1550402670627712e+01 0 0 1
142 1 3.4358825037340274e+01 2.7594560980907737e+01 2.0355691066796929e+01 0 1 0
143 2 3.5075481343025714e+01 2.7345658744338273e+01 1.9752775012945563e+01 0 1 0
132 2 3.6909124746473239e+01 2.5200802167618470e+01 2.0055381165398970e+01 0 4 -2
170 2 3.5148286740046132e+01 2.8502311884237407e+01 2.1853681450512148e+01 0 -1 -2
197 2 3.6988524760773878e+01 2.8192364313053329e+01 2.2997340618920262e+01 -1 2 2
198 2 3.8287372117409944e+01 2.7438064690003742e+01 2.3009588453970903e+01 -1 2 2
169 1 3.5672272142313432e+01 2.9190572001367684e+01 2.2359709182707274e+01 0 -1 -2
522 2 2.0692552067738628e+01 3.0144288652458773e+01 1.8761677841250997e+01 -5 2 0
625 1 2.3436386662048033e+01 2.9744452514167708e+01 2.2408791552263398e+01 2 2 2
83 2 2.1939567064528170e+01 3.2014017948224804e+01 1.9101361674349366e+01 0 0 -1
162 2 2.3222692399870947e+01 3.2839875707931725e+01 2.0821491819855265e+01 1 1 -1
531 2 2.3982919262117715e+01 3.0475953960920975e+01 2.2002828685674093e+01 2 2 2
424 1 2.4736429402554457e+01 3.1824819237189097e+01 2.1172273483938184e+01 1 -2 0
160 1 2.2321463722048790e+01 3.3017411065347474e+01 2.0452765382858722e+01 1 1 -1
161 2 2.1626599924515563e+01 3.2878208840570224e+01 2.1188581828409440e+01 1 1 -1
277 1 2.0164618868494518e+01 3.2375935958042099e+01 2.1953102071253646e+01 0 -3 1
626 2 2.2684692559431554e+01 3.0233893492286334e+01 2.2858203431367283e+01 2 2 2
171 2 2.1066430622817734e+01 3.1644053950833413e+01 2.3247342090532843e+01 1 2 -2
21 2 2.7676032351333642e+01 3.3613612326281590e+01 1.8698911227783828e+01 2 -1 1
474 2 2.6791925197844492e+01 3.0025483016947135e+01 1.9333383150225856e+01 1 -1 -2
431 2 2.8547409918332335e+01 2.9556957154667018e+01 2.0820497255620769e+01 2 -3 2
425 2 2.5234828008428472e+01 3.1493267004885922e+01 2.0399139820235956e+01 1 -2 0
426 2 2.5448869800364186e+01 3.2281073291521324e+01 2.1675205775683409e+01 1 -2 0
472 1 2.6132043330051918e+01 3.0591900820942808e+01 1.8874872133743519e+01 1 -1 -2
387 2 2.7722853517569725e+01 3.2798140880931413e+01 2.2016516297979621e+01 2 -2 1
265 1 2.6966172756526234e+01 3.2560611694582207e+01 2.2579317307191687e+01 2 -3 1
45 2 2.9099221301022322e+01 3.3670919679016826e+01 2.0430947535161639e+01 -2 -1 -5
266 2 2.6830204665274302e+01 3.3298682516947281e+01 2.3109789398720874e+01 2 -3 1
610 1 2.9742840634416197e+01 3.0536087357154624e+01 2.1648009016563435e+01 1 0 -1
611 2 3.0521676537524112e+01 3.0314247805552647e+01 2.2225537148182767e+01 1 0 -1
540 2 2.9988641035919333e+01 3.1299655349585073e+01 2.1096858241021966e+01 1 0 -1
345 2 3.2421943559361111e+01 3.0296491955643692e+01 1.9267258344080098e+01 1 -1 -1
276 2 3.1787392042855870e+01 3.2352442364571935e+01 1.8609986666926019e+01 3 0 0
346 1 3.1489871292114078e+01 3.1859693189373935e+01 1.9410721716774898e+01 3 0 0
347 2 3.2004558904752813e+01 3.2207789066814463e+01 2.0189986893068642e+01 3 0 0
602 2 3.3632153004096594e+01 3.3808862468460561e+01 2.1548699585433770e+01 2 0 2
378 2 3.3277273320493713e+01 3.1982390595985859e+01 2.2729154328922462e+01 -1 -1 0
376 1 3.2629233469049474e+01 3.2515272288814458e+01 2.2222944888797613e+01 -1 -1 0
377 2 3.1968961268260259e+01 3.2701379439247795e+01 2.2851588207699859e+01 -1 -1 0
43 1 2.9502138005483570e+01 3.3506352927333410e+01 2.1377451271606510e+01 -2 -1 -5
278 2 3.8359855378148595e+01 3.1697245945535474e+01 2.1612828501805900e+01 -1 -3 1
279 2 3.8422998223340443e+01 3.3118143208482621e+01 2.2308283163700558e+01 -1 -3 1
448 1 3.5635532487165115e+01 3.2547259079429637e+01 1.9317526606899648e+01 0 0 -1
521 2 3.8461225156310306e+01 2.9680186809551888e+01 1.9796186885688119e+01 -6 2 0
60 2 3.6591801378340428e+01 3.0162642119901577e+01 2.1381944676411990e+01 1 2 -3
130 1 3.7256656571939494e+01 3.0616709882870534e+01 2.0848398298693667e+01 1 2 -3
131 2 3.6726729273242476e+01 3.1147496057271624e+01 2.0204103876026618e+01 1 2 -3
449 2 3.5267060299734617e+01 3.3264096868990777e+01 1.9816117249578028e+01 0 0 -1
75 2 3.5185657919760516e+01 2.9577088157491882e+01 2.3076898362904743e+01 0 -1 -2
450 2 3.6309436841183398e+01 3.3003163113943820e+01 1.8741451084734798e+01 0 0 -1
146 2 2.3065075859773287e+01 3.8508856391151312e+01 1.8807153725964675e+01 -1 -2 1
145 1 2.3893604760851424e+01 3.8497569526251795e+01 1.9208279076300681e+01 -1 -2 1
538 1 2.2186192292564584e+01 3.5880449130150211e+01 1.9834162520934811e+01 0 0 1
539 2 2.2344961542447468e+01 3.4923366168735363e+01 1.9832520868428592e+01 0 0 1
468 2 2.2652770242765328e+01 3.6121062574185984e+01 2.0686492275764792e+01 0 0 1
88 1 2.3999236373201384e+01 3.6147514819206897e+01 2.1989238446560901e+01 0 -1 0
152 2 2.1647204464548917e+01 3.7853368961521142e+01 2.2624699179409969e+01 0 0 -3
90 2 2.4542036118875956e+01 3.5814454339651384e+01 2.2715964865869530e+01 0 -1 0
591 2 2.4519719630406911e+01 3.7911924521887997e+01 2.1675116216761410e+01 0 3 2
128 2 2.0192718225945566e+01 3.8296330770622717e+01 2.0873560424829062e+01 -1 -1 3
89 2 2.3209302849396597e+01 3.6401765692681785e+01 2.2497495016131225e+01 0 -1 0
120 2 2.8550701160718731e+01 3.8590723921154108e+01 1.9293882689185850e+01 0 -1 -2
19 1 2.8036717131170356e+01 3.4389729767826189e+01 1.9197890239763062e+01 2 -1 1
20 2 2.7265322475587961e+01 3.4953911721770623e+01 1.9469544373777687e+01 2 -1 1
118 1 2.7614653959515170e+01 3.8338957489356716e+01 1.9396298124198033e+01 0 -1 -2
281 2 2.5319585102320104e+01 3.6089079275779511e+01 2.0473807358530362e+01 3 0 2
589 1 2.4826281312918802e+01 3.8823597407106419e+01 2.1709164274076489e+01 0 3 2
280 1 2.6269402239187670e+01 3.6021570358142426e+01 2.0395815746597556e+01 3 0 2
282 2 2.6624657448461448e+01 3.6916027449877021e+01 2.0250191002465666e+01 3 0 2
608 2 2.8193459292980560e+01 3.5992995052836278e+01 2.1872616223074132e+01 -2 3 1
270 2 2.7921168958174970e+01 3.8299456595560486e+01 2.2350850604309507e+01 -2 0 1
607 1 2.8950192310620206e+01 3.6522579584101152e+01 2.2294537105847041e+01 -2 3 1
585 2 2.9042174971321053e+01 3.6103399970773062e+01 2.3225759953963951e+01 -2 3 1
633 2 3.2037551897145349e+01 3.5381076464705231e+01 1.8662362969405077e+01 3 -2 0
44 2 3.0025979239144476e+01 3.4369775323922134e+01 2.1611918315311762e+01 -2 -1 -5
583 1 3.2731694942333789e+01 3.5819960084580330e+01 1.9126216587946168e+01 2 -2 0
254 2 3.2003574992054048e+01 3.8472727297430040e+01 2.1760307523200904e+01 -1 -1 -1
284 2 3.0730342089979303e+01 3.8248172565808602e+01 1.9466007921854729e+01 -1 0 0
507 2 3.3600655785877613e+01 3.4847760112275083e+01 2.0327869991804292e+01 2 0 2
537 2 3.1619377395998818e+01 3.6672247140402419e+01 2.0483389012847478e+01 -2 0 1
560 2 3.0444534323446192e+01 3.6974202321977828e+01 2.1457734297206315e+01 -2 0 1
559 1 3.1041627328491725e+01 3.7373185627080005e+01 2.0805514242456557e+01 -2 0 1
601 1 3.4184477848089514e+01 3.4263967715761936e+01 2.0852152577487647e+01 2 0 2
92 2 3.4948976625074465e+01 3.5386454476630711e+01 2.1862124286318249e+01 -3 -2 -3
563 2 3.7202623673687071e+01 3.6350340399799364e+01 1.9764276828369308e+01 -1 0 0
91 1 3.5522920136053301e+01 3.6006944899735977e+01 2.2304170086223291e+01 -3 -2 -3
93 2 3.6066182834279275e+01 3.6438880700100995e+01 2.1542249633135391e+01 -3 -2 -3
562 1 3.7221828075934127e+01 3.7013678694644057e+01 2.0469379281175243e+01 -1 0 0
492 2 3.6674410621347519e+01 3.7765641756943005e+01 2.0076494046432700e+01 -1 0 0
68 2 3.6500632574814389e+01 3.4692698860915741e+01 2.3121773333522615e+01 1 -1 1
567 2 2.1575482271708367e+01 2.2062496785706312e+01 2.6626156272200049e+01 2 0 0
565 1 2.2005959952992679e+01 2.1303713925513701e+01 2.7067367016587255e+01 2 0 0
486 2 2.0847533992450892e+01 2.4231931061596875e+01 2.4537593718571451e+01 0 0 -1
566 2 2.2395481436153300e+01 2.0859700943129901e+01 2.6271483538152136e+01 2 0 0
392 2 2.3843977821993217e+01 2.0576053312131105e+01 2.4859654940116442e+01 1 3 1
325 1 2.4512547843946624e+01 2.1971737596357602e+01 2.3918490504227321e+01 -2 1 -1
326 2 2.4859056586170901e+01 2.1266317132032217e+01 2.3394406152743183e+01 -2 1 -1
327 2 2.5308937234243217e+01 2.2500476755474626e+01 2.4198273918513262e+01 -2 1 -1
348 2 2.7570673606508542e+01 2.3002866078656250e+01 2.4956662128399760e+01 -1 0 -2
95 2 2.6283230554399850e+01 2.2525584244255857e+01 2.6511954509656565e+01 -2 1 -3
94 1 2.6130114363749726e+01 2.1792947628158988e+01 2.7211514838255603e+01 -2 1 -3
418 1 2.6654075521176033e+01 2.3416520196621651e+01 2.5174972206979596e+01 -1 0 -2
419 2 2.6693947242327852e+01 2.4370068267636611e+01 2.5043016286923500e+01 -1 0 -2
96 2 2.6621517584986378e+01 2.0975204791801289e+01 2.7031099758424617e+01 -2 1 -3
244 1 2.8469266986308234e+01 2.1416376902214342e+01 2.4902628587061511e+01 -4 1 -3
246 2 2.7908626551627044e+01 2.1143645982492309e+01 2.4157070769063189e+01 -4 1 -3
519 2 2.8156099938145928e+01 2.0390627973111041e+01 2.6315605918665636e+01 1 0 0
245 2 2.9376351135176538e+01 2.1626715110976736e+01 2.4508113313154638e+01 -4 1 -3
111 2 3.1418688017267904e+01 2.1639271566640584e+01 2.3352356563611423e+01 -1 -1 0
110 2 3.0777750356842937e+01 2.3009932896602095e+01 2.3427068776793913e+01 -1 -1 0
109 1 3.0898793690101936e+01 2.2224456212758358e+01 2.3987463833980161e+01 -1 -1 0
121 1 3.2806925414931328e+01 2.3067379666749229e+01 2.5468204671657446e+01 -1 1 -2
122 2 3.2226261450070275e+01 2.3451034814603968e+01 2.6158670959669983e+01 -1 1 -2
27 2 3.2135834617781896e+01 2.2588749643980087e+01 2.4928546761894037e+01 -1 1 -2
30 2 3.3617254402420002e+01 2.2192552599043459e+01 2.6616912517688107e+01 -1 0 -2
223 1 3.1543599455949384e+01 2.4155481693497890e+01 2.7601223805681247e+01 1 0 1
263 2 3.2802578626500363e+01 2.0474288619654686e+01 2.7951322635442150e+01 1 -1 0
84 2 3.4006022712418513e+01 2.3683566822616275e+01 2.4282522572265673e+01 2 3 -1
646 1 3.8808334078725281e+01 2.2916275485055074e+01 2.5334708298116308e+01 1 0 1
648 2 3.8313314838588212e+01 2.2448242772759361e+01 2.4702737750332954e+01 1 0 1
647 2 3.8256928281101764e+01 2.3389996602212705e+01 2.5982611498294855e+01 1 0 1
28 1 3.4172020494468441e+01 2.1673075657552417e+01 2.7275087427119946e+01 -1 0 -2
29 2 3.4633241832201797e+01 2.0926674581976233e+01 2.6760783202825642e+01 -1 0 -2