LAMMPS data file via write_data, version 2 Jun 2020, timestep = 12723000

648 atoms
2 atom types

2.0135650791472727e+01 3.8773349208539678e+01 xlo xhi
2.0135650791472727e+01 3.8773349208539678e+01 ylo yhi
1.3939650791470132e+01 3.2577349208539886e+01 zlo zhi

Masses

1 15.9994
2 1.00794

Atoms # atomic

548 2 2.0880446363763557e+01 2.2626864976709498e+01 1.5011352348840589e+01 1 3 1
16 1 2.2373624968581066e+01 2.3349476501804546e+01 1.5923941423839427e+01 0 -6 -4
17 2 2.2387448255016231e+01 2.4161773052391105e+01 1.6444023591946486e+01 0 -6 -4
18 2 2.3186804364838554e+01 2.3259959315453710e+01 1.5453981648116891e+01 0 -6 -4
5 2 2.1380080897302033e+01 2.0690952010477915e+01 1.7848785177103146e+01 0 4 1
4 1 2.2235358578964799e+01 2.0867159839128753e+01 1.7397203726916342e+01 0 4 1
6 2 2.2025099407352318e+01 2.1588656672708442e+01 1.6806271388743923e+01 0 4 1
539 2 2.4250411922446890e+01 2.0182186242137202e+01 1.5683759734011108e+01 1 6 2
283 1 2.4280058387558714e+01 2.2578750257558646e+01 1.4372256835093355e+01 1 -4 -1
547 1 2.0427494582139136e+01 2.2003027767183728e+01 1.4425069903684541e+01 1 3 1
284 2 2.4920226551362955e+01 2.1919051394513005e+01 1.4684936057333839e+01 1 -4 -1
538 1 2.5152254048330800e+01 2.0144804307916942e+01 1.5347513386204408e+01 1 6 2
466 1 2.6052410961025608e+01 2.3788695854425939e+01 1.7885324618035948e+01 -1 2 -2
206 2 2.9160976097886387e+01 2.0846201781306949e+01 1.5285842200449940e+01 0 4 3
534 2 2.9217524160643972e+01 2.0957571257463066e+01 1.8061385562390861e+01 -2 4 -1
523 1 2.8002365504775010e+01 2.3292225087410504e+01 1.4538943987732297e+01 -4 1 1
525 2 2.8222522571202934e+01 2.2376832267189531e+01 1.4400387748159517e+01 -4 1 1
533 2 2.7834933402529231e+01 2.1111798188259808e+01 1.7447539740946794e+01 -2 4 -1
532 1 2.8767860194626650e+01 2.1190838699366115e+01 1.7202359729519177e+01 -2 4 -1
468 2 2.5704615720024471e+01 2.0444415850049445e+01 1.6078127595576202e+01 1 6 2
445 1 2.6104395523350473e+01 2.1086672324771119e+01 1.7881509506119926e+01 -1 1 -1
205 1 2.9007386597251582e+01 2.0815757924201147e+01 1.4347034778470443e+01 0 4 3
524 2 2.8056376797815261e+01 2.3434672187345214e+01 1.5529381337159958e+01 -4 1 1
467 2 2.5453965915845913e+01 2.4373655990597236e+01 1.7474166993888471e+01 -1 2 -2
38 2 2.9020914135713227e+01 2.2796584882779840e+01 1.8351867820576853e+01 2 2 -3
447 2 2.5830815348135669e+01 2.1962683503822735e+01 1.7778182648271013e+01 -1 1 -1
444 2 3.1488608228338364e+01 2.3078138645556166e+01 1.7600873169027171e+01 0 -1 -2
514 1 3.1602359982753015e+01 2.2208657115864575e+01 1.8118643944734622e+01 0 -1 -2
515 2 3.2212189766892067e+01 2.1515542657796605e+01 1.7780762985073867e+01 0 -1 -2
320 2 2.9800140557647534e+01 2.3664935210375706e+01 1.5720129341475763e+01 5 4 -1
319 1 3.0047476075586150e+01 2.4066279923952056e+01 1.6559730298653569e+01 5 4 -1
248 2 3.3316058712701299e+01 2.0644547227978904e+01 1.5385228900664696e+01 0 0 3
247 1 3.4057907714875860e+01 2.0850704374978079e+01 1.4800024332796735e+01 0 0 3
360 2 3.3434871650812283e+01 2.4528848501526106e+01 1.7855089751615093e+01 0 -2 0
417 2 3.1909940954297930e+01 2.4504507879015772e+01 1.4533689831095854e+01 -2 1 0
549 2 3.8166424683986925e+01 2.2324733637694422e+01 1.4383567696703329e+01 0 3 1
12 2 3.6823222695797384e+01 2.0286923214637888e+01 1.6247895130032266e+01 -3 0 0
82 1 3.6615017502174638e+01 2.1196275971678823e+01 1.5989844654884637e+01 -3 0 0
83 2 3.5670157435525482e+01 2.1131528444774542e+01 1.5719700956926458e+01 -3 0 0
119 2 3.6884983207016418e+01 2.2749971973133441e+01 1.6702618566272971e+01 0 3 -1
118 1 3.6791050179676063e+01 2.3590060594848048e+01 1.7161848471034276e+01 0 3 -1
120 2 3.5895491227452133e+01 2.3687249294895068e+01 1.7561725291906786e+01 0 3 -1
358 1 3.4199724764877686e+01 2.4293261315202976e+01 1.8390366166649994e+01 0 -2 0
263 2 3.8016458729479027e+01 2.4632133680832123e+01 1.7715645839982656e+01 0 0 -2
91 1 2.3016781727261673e+01 2.7207802208841898e+01 1.4992821727764914e+01 -2 -3 3
133 1 2.2484659606133015e+01 2.5900689181991886e+01 1.7220442390164045e+01 -3 -2 3
134 2 2.2786345090481799e+01 2.6465224531776599e+01 1.6420681808426732e+01 -3 -2 3
135 2 2.1522494810279728e+01 2.6127163528526776e+01 1.7355106956273445e+01 -3 -2 3
92 2 2.2904003915755890e+01 2.8180471695527558e+01 1.4978869001351018e+01 -2 -3 3
218 2 2.3509356731445035e+01 2.6461816747878757e+01 1.8483187949363405e+01 1 -5 -2
401 2 2.0201475911634454e+01 2.8656726422281452e+01 1.5629083832340127e+01 1 0 3
400 1 2.0207301202685869e+01 2.8232716503472762e+01 1.6455473878724323e+01 1 0 3
597 2 2.1261459891923757e+01 2.9233309338036037e+01 1.7355769824203648e+01 2 -4 -1
93 2 2.2210505519144125e+01 2.6910108511436526e+01 1.4481139454309412e+01 -2 -3 3
204 2 2.8963179358056351e+01 2.6013538055057442e+01 1.8552207657996330e+01 -4 0 2
297 2 2.9329533026126320e+01 2.4820125941286314e+01 1.6783595584225004e+01 5 4 -1
58 1 2.8714287167587788e+01 2.5951014296454495e+01 1.7538514182114803e+01 -4 -1 2
431 2 2.5507786161661944e+01 2.6972903947766696e+01 1.6707026649894523e+01 3 1 4
430 1 2.6390196250277963e+01 2.7315253333655299e+01 1.6730505354264910e+01 3 1 4
59 2 2.7834319287713647e+01 2.6400631115584055e+01 1.7454531054021302e+01 -4 -1 2
432 2 2.6295698521996464e+01 2.8320508663343375e+01 1.6656956057156737e+01 3 1 4
26 2 3.1397661498790967e+01 2.4907213061668092e+01 1.6582326913780939e+01 2 2 1
147 2 3.2381009966749502e+01 2.6250896158225704e+01 1.6458375055866625e+01 2 3 1
25 1 3.2277868624629313e+01 2.5313990652128794e+01 1.6844709446578918e+01 2 2 1
84 2 3.2303410286274278e+01 2.8775485099151286e+01 1.6080829044413722e+01 -2 1 -2
154 1 3.2779477059917809e+01 2.7890992743048301e+01 1.6108839478028116e+01 -2 1 -2
155 2 3.3633194359728023e+01 2.8153980311390065e+01 1.6419792467500866e+01 -2 1 -2
624 2 3.2093264126378990e+01 2.7561509510030703e+01 1.4121116708284550e+01 0 1 4
167 2 3.1834368968110162e+01 2.7111109479853219e+01 1.8578045700155759e+01 0 -3 -2
408 2 3.8213225292870931e+01 2.4888004743229224e+01 1.5394156251222567e+01 0 2 3
402 2 3.8589450077935481e+01 2.7363866760433847e+01 1.6175346408622907e+01 0 0 3
262 1 3.8667867788300271e+01 2.5342541096478076e+01 1.7825502971253030e+01 0 0 -2
406 1 3.7897881252682751e+01 2.5513269741519085e+01 1.4742792640965661e+01 0 2 3
559 1 3.5326860757459798e+01 2.8467404259130536e+01 1.7778925924539347e+01 -2 0 6
264 2 3.8102172928153337e+01 2.5981360905043289e+01 1.8303219249771672e+01 0 0 -2
186 2 3.6297494304753165e+01 2.6086422750653519e+01 1.5590640177283669e+01 -1 -1 1
560 2 3.6135712209088439e+01 2.8036687592793331e+01 1.8114239589533558e+01 -2 0 6
537 2 3.5748912366405634e+01 2.9266872489523681e+01 1.7266445199290473e+01 -2 0 6
407 2 3.8669426079609138e+01 2.5893495191375948e+01 1.4185161988744463e+01 0 2 3
13 1 3.5563183051971201e+01 2.9161927566177894e+01 1.4949117090254562e+01 1 -1 -4
15 2 3.5565813734270186e+01 2.8178657454481886e+01 1.5121710546608725e+01 1 -1 -4
184 1 3.5433263619449086e+01 2.6413005365337057e+01 1.5853985683773784e+01 -1 -1 1
185 2 3.5052386234702610e+01 2.5555291503874070e+01 1.6040875944159772e+01 -1 -1 1
511 1 2.1846873444575206e+01 3.2729430133572883e+01 1.6540042209319644e+01 1 -2 0
596 2 2.1636730949816773e+01 3.0755661487670828e+01 1.7205344410525207e+01 2 -4 -1
595 1 2.1538670567810062e+01 3.0069308508229920e+01 1.7865687677107715e+01 2 -4 -1
347 2 2.3513753891580677e+01 3.0989515356624931e+01 1.4273939638086116e+01 -1 -1 3
512 2 2.2392626352207891e+01 3.2684758833142723e+01 1.5765611316028942e+01 1 -2 0
602 2 2.3219852936621436e+01 2.9753073894291546e+01 1.8447456998794387e+01 3 2 1
609 2 2.0582591631400252e+01 3.1798228572468922e+01 1.5248611585679296e+01 1 0 2
561 2 2.1604326487621215e+01 3.3687124987723145e+01 1.6564207761974682e+01 2 -2 0
294 2 2.2834991437977258e+01 3.3010381426216099e+01 1.8031159007433111e+01 1 0 1
346 1 2.3395415165289361e+01 3.0012383694715808e+01 1.4392756856316064e+01 -1 -1 3
281 2 2.0317808478215525e+01 3.0049970674622362e+01 1.4020626613118718e+01 -1 -2 1
631 1 2.0551070676933264e+01 3.1646501118429292e+01 1.4302822065388192e+01 1 0 2
536 2 2.5088046322895938e+01 2.9817839181965965e+01 1.5280566357056994e+01 -1 -3 0
11 2 2.4816634181978738e+01 3.2440960138397138e+01 1.7848931800497333e+01 -4 0 -2
513 2 2.5643406806748423e+01 3.0591623370910451e+01 1.6639946876045670e+01 -1 -3 0
535 1 2.5771443144263017e+01 2.9804624537506239e+01 1.6040758046281915e+01 -1 -3 0
96 2 2.7724506148997836e+01 3.1741997714444803e+01 1.5957067101907091e+01 -3 3 1
94 1 2.7572022850086586e+01 3.1373071615265530e+01 1.5032941120671014e+01 -3 3 1
95 2 2.7053168654230340e+01 3.0631080504358884e+01 1.5329060926533842e+01 -3 3 1
10 1 2.5362582431206562e+01 3.2356708396107933e+01 1.7075131439631470e+01 -4 0 -2
156 2 2.6275779345419519e+01 3.2557904152043747e+01 1.7340587428336676e+01 -4 1 -2
574 1 2.7900779097092009e+01 3.2080768107485277e+01 1.7931680243733123e+01 -5 -1 -1
576 2 2.8590929602765776e+01 3.2698528208436045e+01 1.8277305393501027e+01 -5 -1 -1
251 2 2.9807360069540991e+01 2.9936782843968032e+01 1.4420203511288596e+01 0 -1 2
364 1 3.1519945869817743e+01 3.0205980770229857e+01 1.5779456188581909e+01 3 0 4
365 2 3.1318458592996766e+01 3.0643264294823204e+01 1.6579170640659182e+01 3 0 4
366 2 3.2325323459437442e+01 3.0762305690082314e+01 1.5559337488194451e+01 3 0 4
70 1 3.1994322113344644e+01 3.1835327683072816e+01 1.8030432863942643e+01 1 -3 1
269 2 3.2933917845273442e+01 3.3141784784435671e+01 1.6951118785659418e+01 3 -3 3
245 2 3.3866013393828936e+01 3.2097449843456147e+01 1.5421024054506784e+01 0 -2 2
268 1 3.3649785037360061e+01 3.3328636792481923e+01 1.6345512478567521e+01 3 -3 3
244 1 3.3753054192493288e+01 3.1380173090872692e+01 1.4773531323387276e+01 0 -2 2
72 2 3.2728224595844459e+01 3.1332526305537044e+01 1.8434269539318350e+01 1 -3 1
270 2 3.3294081999604785e+01 3.3929109655161469e+01 1.5687123819853188e+01 3 -3 3
14 2 3.6335841315080614e+01 2.9491649509978547e+01 1.5440738739013824e+01 1 -1 -4
246 2 3.4305280810529396e+01 3.0600204547853664e+01 1.4939654836280884e+01 0 -2 2
126 2 3.5366041033460661e+01 3.3795281310945960e+01 1.6092022789785755e+01 0 2 -1
318 2 3.6665637152185333e+01 3.1773833561832951e+01 1.6693072346635368e+01 0 -3 -3
316 1 3.7090956584601841e+01 3.0927074435646034e+01 1.6911416925798235e+01 0 -3 -3
317 2 3.7448355670285068e+01 3.1148908562064470e+01 1.7784258898542699e+01 0 -3 -3
124 1 3.6309332980510703e+01 3.3616266962992732e+01 1.5881321661515681e+01 0 2 -1
579 2 3.6236711256464645e+01 3.2841053321062724e+01 1.4037404101619311e+01 -2 -3 3
600 2 2.4552953530324402e+01 3.5922888792342469e+01 1.6234390442738519e+01 1 0 0
289 1 2.3953582117484576e+01 3.6363641906835689e+01 1.4616727305850468e+01 -1 1 2
290 2 2.4217008609359386e+01 3.7371534165053035e+01 1.4662918818985625e+01 -1 1 2
389 2 2.4106530477891809e+01 3.5933585239388115e+01 1.8372728788568462e+01 0 0 3
267 2 2.3053577058942981e+01 3.6349218234821642e+01 1.4499508265087851e+01 0 1 2
67 1 2.0744836415481998e+01 3.5167850566039746e+01 1.6589788964892286e+01 3 -1 2
69 2 2.0956167042730872e+01 3.5946035793430553e+01 1.6012824838775998e+01 3 -1 2
170 2 2.1459620528935893e+01 3.7527163561830271e+01 1.4259534471266903e+01 1 -3 5
169 1 2.1242271158963540e+01 3.6592095232352662e+01 1.4439416102606042e+01 1 -3 5
75 2 2.0361500051704972e+01 3.6476087133128907e+01 1.4054213778346703e+01 1 -3 5
598 1 2.4993334361046571e+01 3.5807439862719121e+01 1.7102354288385548e+01 1 0 0
599 2 2.5391806142811948e+01 3.4976739405559741e+01 1.7054447261371578e+01 1 0 0
207 2 2.8436824592418688e+01 3.8754206893757569e+01 1.4106563141039853e+01 0 3 3
385 1 3.2754554531952593e+01 3.8589086610166419e+01 1.6712397645036390e+01 -1 -3 1
498 2 2.9521938488394703e+01 3.6985082825390172e+01 1.5738732913313145e+01 3 1 1
291 2 3.1979732491477286e+01 3.8000150993490607e+01 1.6472007059940211e+01 -1 -3 1
386 2 3.3422913621783223e+01 3.7976181965012394e+01 1.7165919809335794e+01 -1 -3 1
496 1 3.0378906013033713e+01 3.6825763106444668e+01 1.6120737167300373e+01 3 1 1
497 2 3.0221971034095382e+01 3.6524229426728908e+01 1.7018889220424718e+01 3 1 1
188 2 3.1730029328473698e+01 3.5613345172981198e+01 1.5148310065959896e+01 4 -1 -1
187 1 3.2522056892397288e+01 3.5193590198948961e+01 1.4788619476333333e+01 4 -1 -1
110 2 3.3823256516157031e+01 3.6204679133479615e+01 1.3957490847025401e+01 4 1 4
125 2 3.6898072347635846e+01 3.4257790301668201e+01 1.6301569449568397e+01 0 2 -1
225 2 3.4168681300659699e+01 3.8620253360320802e+01 1.4410044966680525e+01 0 -1 3
68 2 3.8641112759487228e+01 3.5523278987757472e+01 1.7142977025680210e+01 2 -1 2
212 2 3.7214569638119890e+01 3.7248684414425938e+01 1.4880211240328590e+01 2 -2 0
439 1 3.7290483855764492e+01 3.7234461813316933e+01 1.7043378503903526e+01 1 -2 -1
440 2 3.6371243141525213e+01 3.7393731686853044e+01 1.7409776439533172e+01 1 -2 -1
489 2 3.7861457094181091e+01 3.7588621826145157e+01 1.7766726114718423e+01 2 -2 -1
335 2 3.4785787443017298e+01 3.6330502780371070e+01 1.8016647578423111e+01 0 2 -1
334 1 3.4671293521490107e+01 3.7283558023873695e+01 1.7924639684988424e+01 0 2 -1
35 2 2.3132102006727070e+01 2.1181529012466402e+01 1.8702956104620970e+01 -1 0 -2
416 2 2.1180945650958233e+01 2.3359126028131620e+01 2.0116140165609227e+01 2 5 0
415 1 2.1751199655903481e+01 2.3890235254829388e+01 1.9544139174261954e+01 2 5 0
34 1 2.3778930901878404e+01 2.1599154390830389e+01 1.9486359557204207e+01 -1 0 -2
266 2 2.0335549933258854e+01 2.1787002141039608e+01 2.1455136209897237e+01 -1 -2 -1
180 2 2.3210640762080427e+01 2.2333278476437084e+01 1.9608681058215051e+01 -1 1 -2
399 2 2.1695607580424710e+01 2.0536174567768722e+01 2.2429676739779534e+01 -1 1 0
397 1 2.1051828976761911e+01 2.1017239110381432e+01 2.2994936942809908e+01 -1 1 0
384 2 2.3654195184137915e+01 2.0523173985270837e+01 2.0949972054132139e+01 -1 1 0
313 1 2.4197159488197631e+01 2.4216424653591858e+01 2.2897946563320769e+01 -1 2 -2
393 2 2.1150351093442989e+01 2.4490615167286808e+01 1.9083157148437557e+01 2 5 0
37 1 2.8830832307045029e+01 2.2921168851825019e+01 1.9330761495746984e+01 2 2 -3
39 2 2.8081634734031159e+01 2.3536868725587972e+01 1.9350000399597615e+01 2 2 -3
446 2 2.5699733033960001e+01 2.0618118101218776e+01 1.8646849614574293e+01 -1 1 -1
612 2 2.5827337099400090e+01 2.4048712856818330e+01 1.8810868757782490e+01 -1 3 -2
361 1 2.6432556975501626e+01 2.4608718420547433e+01 2.0624260819033495e+01 2 -1 -3
43 1 2.7423498994720671e+01 2.3832123657538851e+01 2.3098959009713813e+01 2 1 -1
339 2 2.6781031657595456e+01 2.4156483055648259e+01 2.1434831615378034e+01 3 -1 -3
44 2 2.7795421667056416e+01 2.2903324329854680e+01 2.3221651396815204e+01 2 1 -1
608 2 2.7436608432172527e+01 2.1668858655532375e+01 2.0099559287582441e+01 -2 3 0
607 1 2.6662421948601708e+01 2.1543547313837571e+01 2.0713506752450993e+01 -2 3 0
585 2 2.5977218234052849e+01 2.2223446448947985e+01 2.0567395209543669e+01 -2 3 0
171 2 2.6355613219852767e+01 2.0222676787247984e+01 2.1673893154718989e+01 -1 1 0
103 1 2.9705030287389931e+01 2.1571714745120754e+01 2.1840465026547047e+01 -1 4 -2
81 2 2.9525543381334106e+01 2.2541260384093018e+01 2.1596789999757299e+01 -1 4 -2
104 2 3.0287499160985220e+01 2.1598925153300762e+01 2.2542809743743589e+01 -1 4 -2
64 1 3.2334556600206938e+01 2.3261806856064869e+01 2.0497670975035046e+01 -1 1 2
65 2 3.2851365802125336e+01 2.2424832618833193e+01 2.0826237022038448e+01 -1 1 2
66 2 3.1910003697190326e+01 2.3048731723384982e+01 1.9672704023161529e+01 -1 1 2
359 2 3.3863235023892940e+01 2.3729550492386394e+01 1.9103883064414703e+01 0 -2 0
85 1 3.3827128280390752e+01 2.0866550387996480e+01 2.1890783901982953e+01 0 1 0
87 2 3.3454260679802253e+01 2.0273016840349722e+01 2.2556963607906503e+01 0 1 0
395 2 3.0772872383472262e+01 2.1194704951237526e+01 1.9354122003073989e+01 2 1 0
324 2 3.0064454126235724e+01 2.0616026616889766e+01 2.0618877385726684e+01 2 1 0
394 1 3.0423987044890694e+01 2.0325435503144661e+01 1.9700461128697494e+01 2 1 0
152 2 3.0965454073173625e+01 2.3892788455161153e+01 2.1367329041777541e+01 -2 1 2
151 1 3.0246799281539005e+01 2.4360418960784902e+01 2.1872713531099372e+01 -2 1 2
265 1 3.8391134275825834e+01 2.2026570020142906e+01 2.0717319607261306e+01 -2 -2 -1
279 2 3.8390342531877415e+01 2.0577022393718380e+01 1.9542251986847109e+01 1 -1 -3
387 2 3.7587107171623472e+01 2.2353541781534467e+01 2.1167328220982991e+01 -2 -1 -1
76 1 3.6581158310828314e+01 2.3940515289121588e+01 2.1900861865601065e+01 2 -3 3
78 2 3.7261262447500265e+01 2.4445596920434760e+01 2.2409852636729589e+01 2 -3 3
77 2 3.6095716166101397e+01 2.4727946329126201e+01 2.1443945565261323e+01 2 -3 3
86 2 3.4415410278352212e+01 2.1413716175011906e+01 2.2393565614192251e+01 0 1 0
309 2 3.5796414290191947e+01 2.2894460569675029e+01 2.2996343273555478e+01 -3 0 1
217 1 2.4028430698172986e+01 2.6775279866255566e+01 1.9241423212021406e+01 1 -5 -2
507 2 2.4120737711829054e+01 2.8675257479160823e+01 1.9066236134491444e+01 3 2 1
227 2 2.2909233553579160e+01 2.5570629051511183e+01 2.1934370450216914e+01 0 1 -2
226 1 2.2279851002736063e+01 2.5946340308603904e+01 2.1259794672899389e+01 0 1 -2
372 2 2.2036930736417915e+01 2.5292524975647495e+01 2.0639519803467227e+01 0 2 -2
411 2 2.3555199951112691e+01 2.6500218497639953e+01 2.0136423208548724e+01 2 -4 -2
231 2 2.2692064831986229e+01 2.8124378059608208e+01 2.2883857634354971e+01 -5 -3 -2
643 1 2.2642218668376213e+01 2.9165648419976336e+01 2.1481590875963729e+01 0 -2 2
645 2 2.3173790740709890e+01 2.9247821670328655e+01 2.0731802375150359e+01 0 -2 2
179 2 2.0962854241510684e+01 2.8895241296272378e+01 2.1078883380356189e+01 1 1 0
314 2 2.4575298203923765e+01 2.5032744161073573e+01 2.3137368266603143e+01 -1 2 -2
495 2 2.1008521122363842e+01 2.6283421919718108e+01 2.2801664849539897e+01 -1 -1 -1
362 2 2.5914913940769665e+01 2.5391937798581182e+01 2.1002590670242760e+01 2 -1 -3
163 1 2.8921361308379591e+01 2.6237717447142749e+01 2.0193443025926026e+01 4 1 3
312 2 2.6271278893373420e+01 2.8035231568094474e+01 2.1123765176381912e+01 -1 -3 -2
311 2 2.5985746945614494e+01 2.7418439419594012e+01 1.9713381719374258e+01 -1 -3 -2
310 1 2.6672592080654059e+01 2.7855632346959723e+01 2.0262357927722174e+01 -1 -3 -2
164 2 2.7986763124393420e+01 2.6456809219866223e+01 2.0460670674336317e+01 4 1 3
465 2 2.8692770266235705e+01 2.6931725564681265e+01 2.2522797553658048e+01 -2 0 0
478 1 2.5827268928228065e+01 2.9306992332270731e+01 2.2417347464276023e+01 -2 -4 -1
165 2 2.9301272499771379e+01 2.5480500931635419e+01 2.0704041628309277e+01 4 1 3
488 2 2.7932640341493858e+01 2.5692746064408098e+01 2.2967183550952488e+01 -2 0 0
487 1 2.8001841888335893e+01 2.6679993142948859e+01 2.3170866672865259e+01 -2 0 0
201 2 3.0770888516154749e+01 2.5029845866374700e+01 2.2316860677026995e+01 -1 1 2
168 2 3.0639755807665225e+01 2.6701095844194622e+01 1.9620960871681895e+01 0 -3 -2
166 1 3.1552580396616694e+01 2.7056954740362723e+01 1.9497349763083911e+01 0 -3 -2
80 2 3.1419342032277157e+01 2.8797027725069086e+01 2.0363055264547111e+01 -2 1 2
3 2 3.3060120679800164e+01 2.7984482039994919e+01 2.1616755022879040e+01 -2 4 -1
79 1 3.2056055404122205e+01 2.9168647097657615e+01 2.1038224395221089e+01 -2 1 2
97 1 3.3724050369106308e+01 2.7236355472230311e+01 2.1853172173873809e+01 -2 4 -1
477 2 3.2577586510379881e+01 2.6394420219911996e+01 2.2719266555916953e+01 -3 -2 -3
98 2 3.4209652075312668e+01 2.7549664300891866e+01 2.2633022434174375e+01 -2 4 -1
503 2 3.4528977118509076e+01 2.6230935302423617e+01 2.0690315380876978e+01 -3 1 0
504 2 3.5101180708022412e+01 2.5255608976812997e+01 1.9517346656787048e+01 -3 1 0
502 1 3.5280019925569619e+01 2.5634072922909311e+01 2.0428503354212580e+01 -3 1 0
591 2 3.6544568447199595e+01 2.6514855636013770e+01 1.9805757803763090e+01 -3 2 2
589 1 3.7185080178372289e+01 2.7013062348107638e+01 1.9173618160802818e+01 -3 2 2
590 2 3.7846028668363729e+01 2.7435941430639190e+01 1.9853206079066268e+01 -3 2 2
178 1 3.8647828561094819e+01 2.8544907866102179e+01 2.0895399098977425e+01 0 1 0
108 2 3.8199716030931469e+01 2.9223615389199818e+01 2.0296703756620609e+01 0 1 0
581 2 2.0279260717674436e+01 3.0543609030496491e+01 1.9094167561457322e+01 -6 -2 3
601 1 2.4038313038240414e+01 2.9635280385490930e+01 1.8958673595933426e+01 3 2 1
292 1 2.3270090972551440e+01 3.2954136494261199e+01 1.8914984060770927e+01 1 0 1
293 2 2.3277482884953045e+01 3.3924469502987755e+01 1.9074166240786198e+01 1 0 1
644 2 2.2674873209095281e+01 3.0057794707414235e+01 2.1850483927182331e+01 0 -2 2
529 1 2.1205743735578423e+01 3.3682434631229725e+01 2.2764419079020701e+01 -4 -2 -2
530 2 2.1454510509959793e+01 3.3059685326189367e+01 2.2105382113739893e+01 -4 -2 -2
215 2 2.2821602731354155e+01 3.2201187635649063e+01 2.0733055452484262e+01 5 -1 1
214 1 2.2715818312447922e+01 3.1922658347207943e+01 2.1678032537115893e+01 5 -1 1
216 2 2.3555876282159414e+01 3.2172901454940096e+01 2.2104960505783893e+01 5 -1 1
345 2 2.6812999191211077e+01 2.9553212367554494e+01 1.9952266597681120e+01 3 0 0
296 2 2.5671009574926583e+01 3.0460028810923539e+01 1.9473728612333048e+01 2 0 0
575 2 2.7588237419101361e+01 3.1739909711651840e+01 1.8823649614476796e+01 -5 -1 -1
295 1 2.6560524513414464e+01 3.0557478895937763e+01 1.9893175600665291e+01 2 0 0
479 2 2.6768608281325658e+01 2.9542454053923997e+01 2.2563040194117622e+01 -2 -4 -1
480 2 2.5532347404991427e+01 2.9905251596632361e+01 2.1731642622606305e+01 -2 -4 -1
636 2 2.7687499754504486e+01 3.3156764042868211e+01 2.1040073256493436e+01 0 2 2
490 1 2.7190732690232792e+01 3.3555682627515310e+01 2.1766954710826219e+01 0 1 2
409 1 2.5084653013955133e+01 3.2178073418514387e+01 2.2967076836048101e+01 -1 0 1
410 2 2.5956150140051630e+01 3.2342906690419255e+01 2.2614056370369223e+01 -1 0 1
491 2 2.7872696138124866e+01 3.4048822845254605e+01 2.2306591982287774e+01 0 1 2
376 1 2.8373120123624382e+01 3.0523677632587493e+01 2.3167276427253952e+01 -2 1 1
129 2 3.2685278238930010e+01 2.9741373896010952e+01 2.0559751604330515e+01 -1 1 2
71 2 3.1447147605990629e+01 3.2332536122241024e+01 1.8663796884680156e+01 1 -3 1
42 2 2.9547869613797850e+01 3.0915171513489874e+01 2.2364976213727054e+01 1 2 0
646 1 2.9714399701297648e+01 3.3124689244686280e+01 2.0236458620247106e+01 3 -1 0
647 2 2.9952949002815693e+01 3.2495087210920104e+01 2.0986810091280752e+01 3 -1 0
648 2 3.0398191308935615e+01 3.3881868757623927e+01 2.0049209103117295e+01 3 -1 0
41 2 3.1048904342105331e+01 3.0660555044470094e+01 2.1808787833964452e+01 1 2 0
40 1 3.0380738401306751e+01 3.1294891571749446e+01 2.2068412481173123e+01 1 2 0
298 1 3.3506157612894306e+01 3.3448022701328341e+01 2.2495743590231179e+01 2 0 0
352 1 3.3835408417582158e+01 3.0486158681576882e+01 1.9544855496280920e+01 -1 1 -1
8 2 3.2711194763034023e+01 3.3957617434573194e+01 2.0555193306271324e+01 0 -4 1
299 2 3.4022854805340359e+01 3.3943369160685293e+01 2.3170843466938326e+01 2 0 0
354 2 3.4425643064930476e+01 2.9748681325353047e+01 1.9343838057585305e+01 -1 1 -1
580 1 3.8050907298690504e+01 3.0926588060763308e+01 1.9427686518644688e+01 -7 -2 3
582 2 3.8373995264649281e+01 3.1739450531594304e+01 1.9867630780694331e+01 -7 -2 3
353 2 3.4378025033799645e+01 3.1146021927773045e+01 2.0025411917323524e+01 -1 1 -1
255 2 3.7244445382960826e+01 2.9559437962073339e+01 2.2161769405727092e+01 0 1 -1
228 2 3.4223363615443141e+01 3.3096104073254608e+01 2.1919957031966518e+01 2 0 0
175 1 3.5349571557248794e+01 3.2179282339371049e+01 2.0946504626906069e+01 -1 0 0
153 2 3.5729373716553347e+01 3.1591059926214758e+01 2.1559446220621272e+01 -1 0 0
176 2 3.6175946524602963e+01 3.2511155191256563e+01 2.0493420657478392e+01 -1 0 0
253 1 3.6924893560223964e+01 3.0337249850201633e+01 2.2648415766082486e+01 0 1 -1
286 1 3.7388126022218550e+01 3.3661308813075237e+01 1.9789699341901066e+01 3 1 -2
254 2 3.6236190617414834e+01 3.0019015335763108e+01 2.3226134169910370e+01 0 1 -1
388 1 2.3853770127048300e+01 3.5848285523445448e+01 1.9320836470210306e+01 0 0 3
382 1 2.3409581007144435e+01 3.8620650975798434e+01 2.1701037815501451e+01 -1 0 0
383 2 2.4236718080929382e+01 3.8155147159931460e+01 2.2007601742274129e+01 -1 0 0
278 2 2.0781413544660314e+01 3.8091068775201649e+01 1.9445852309321513e+01 2 -2 -3
349 1 2.1739527131395597e+01 3.6886044274158628e+01 2.0383874692631011e+01 2 0 -4
350 2 2.2527108447089027e+01 3.6337078237497465e+01 1.9930543937301820e+01 2 0 -4
351 2 2.2225748927229070e+01 3.7508766340873379e+01 2.0970887432079632e+01 2 0 -4
54 2 2.0702593091739466e+01 3.6021137773983639e+01 2.0953420146074002e+01 0 0 -1
53 2 2.0523198027078912e+01 3.4862208904231196e+01 2.1985568532080137e+01 0 0 -1
390 2 2.4550611975448497e+01 3.6022332881978976e+01 1.9957984169981312e+01 0 0 3
593 2 2.2556005651267320e+01 3.5266628942679212e+01 2.2688381712638826e+01 1 -3 2
592 1 2.3314185301022718e+01 3.5628637881816402e+01 2.3201498083165855e+01 1 -3 2
594 2 2.4033894444366982e+01 3.5794840884542872e+01 2.2573171912564547e+01 1 -3 2
563 2 2.6126356748327304e+01 3.4984484509329704e+01 2.1261545065775710e+01 -1 -2 1
562 1 2.5455557720653360e+01 3.5685672844216121e+01 2.1405504503035250e+01 -1 -2 1
492 2 2.6037257178013984e+01 3.6436527457216521e+01 2.1622403033323348e+01 -1 -2 1
49 1 2.6131216572077921e+01 3.8041947588728178e+01 2.2116011132527955e+01 -1 -1 0
50 2 2.6599832959489806e+01 3.8166791847676265e+01 2.2957737247014041e+01 -1 -1 0
261 2 2.9955054493099382e+01 3.5971055199308800e+01 1.9869025394590267e+01 0 -5 -1
259 1 3.0334278962498061e+01 3.6326556224877983e+01 1.9024242507313694e+01 0 -5 -1
260 2 3.0394967620627046e+01 3.7296245091588531e+01 1.9217596667950712e+01 0 -5 -1
545 2 3.1405604460510300e+01 3.6609418055558052e+01 2.2763521740013115e+01 0 -1 1
57 2 3.2184085805005218e+01 3.5281823562151025e+01 2.0204240602590605e+01 1 -4 1
7 1 3.2663419634919379e+01 3.4500148951929049e+01 1.9796992266563915e+01 0 -4 1
544 1 3.1119918498352611e+01 3.5910091044052585e+01 2.2179525885953439e+01 0 -1 1
275 2 2.9460011730873305e+01 3.5352945345923409e+01 2.3227603764861524e+01 -1 -2 3
546 2 3.1562535492159562e+01 3.5085446691662021e+01 2.2504658340242617e+01 0 -1 1
603 2 3.4316741982397353e+01 3.4466304936130584e+01 1.9527379002763645e+01 1 6 -3
481 1 3.5180200332784743e+01 3.4934804159030350e+01 1.9445094883181373e+01 1 5 -3
128 2 3.4637581412565929e+01 3.8405879636405913e+01 2.1072753072392537e+01 -2 5 2
482 2 3.5071341805956486e+01 3.5668592835370148e+01 2.0096046684709304e+01 1 5 -3
287 2 3.6582456022694601e+01 3.4194436685191505e+01 1.9534207175554847e+01 3 1 -2
277 1 3.8728774649571662e+01 3.8559960838210564e+01 1.8874859384039265e+01 1 -2 -3
52 1 3.8624347242632226e+01 3.5475264375623510e+01 2.1416258887261783e+01 -1 0 -1
127 1 3.4965860719904022e+01 3.7477286316990245e+01 2.0735062606694729e+01 -2 5 2
336 2 3.4615126179467239e+01 3.7572572568601998e+01 1.8869052287473881e+01 0 2 -1
288 2 3.7803661820714581e+01 3.4292802935430103e+01 2.0434951581526171e+01 3 1 -2
105 2 3.5658785315587338e+01 3.7216203693808410e+01 2.1472188497022646e+01 -2 5 2
630 2 3.7523669334213416e+01 3.6381334335162450e+01 2.2571364190099729e+01 -1 0 -1
628 1 3.6780093541161918e+01 3.6935252428457495e+01 2.2969339799555510e+01 -1 0 -1
398 2 2.1435624910469130e+01 2.1793794180066552e+01 2.3353138000335544e+01 -1 1 0
543 2 2.2743899578716285e+01 2.3826581442735971e+01 2.3680602312129846e+01 2 1 -1
541 1 2.1899294956796709e+01 2.3457049747914997e+01 2.4124232299440326e+01 2 1 -1
542 2 2.1867648034802986e+01 2.3321500528461858e+01 2.5073505368332274e+01 2 1 -1
199 1 2.2118597391381769e+01 2.2860815603387547e+01 2.7007612290558264e+01 1 -3 0
177 2 2.3039818447352317e+01 2.2830518004682158e+01 2.7209949810952420e+01 1 -3 0
200 2 2.1894650474545035e+01 2.2374435380156811e+01 2.7751146295829457e+01 1 -3 0
219 2 2.4449684257145620e+01 2.3519614236038645e+01 2.3622919978732380e+01 -1 2 -2
321 2 2.3636499413101305e+01 2.0768755476802454e+01 2.5926845580133953e+01 -3 1 0
343 1 2.4265370943052769e+01 2.0338009285270349e+01 2.5296494077445324e+01 -3 1 0
45 2 2.6751088074290298e+01 2.3837149837935385e+01 2.3799383563170945e+01 2 1 -1
221 2 2.5012599323274671e+01 2.1727122713064144e+01 2.4922341129847176e+01 1 2 -1
421 1 2.5014725992152137e+01 2.2982094911587527e+01 2.7507269951556342e+01 3 5 2
222 2 2.5520509187047665e+01 2.2710251687415031e+01 2.5907243771227908e+01 1 2 -1
423 2 2.5129711920626178e+01 2.3929811536860978e+01 2.7411010225733907e+01 3 5 2
220 1 2.5451537122546576e+01 2.2596285469788608e+01 2.4889663519753434e+01 1 2 -1
89 2 3.0197301882679277e+01 2.3373873110696728e+01 2.5673207939329501e+01 3 3 -3
638 2 3.0175075143006250e+01 2.1136655195999886e+01 2.5286336289667673e+01 -4 -2 3
88 1 3.0394377638510861e+01 2.2777002063976322e+01 2.4949191571622720e+01 3 3 -3
90 2 3.1294923818600946e+01 2.3065030723869540e+01 2.4678305032104088e+01 3 3 -3
637 1 3.0031781335862973e+01 2.0260574391691488e+01 2.5730922369154623e+01 -4 -2 3
639 2 2.9534220265631056e+01 2.0431966038785411e+01 2.6573103988058008e+01 -4 -2 3
586 1 3.2860963098800681e+01 2.3627868868094129e+01 2.4361361120688560e+01 7 0 -1
516 2 3.3638355102058490e+01 2.3283059649000354e+01 2.3939751695752093e+01 7 0 -1
587 2 3.3201141945303789e+01 2.3887970198960303e+01 2.5275008591420978e+01 7 0 -1
505 1 3.0890242564190189e+01 2.4697252177100257e+01 2.7267079318468983e+01 -1 2 -1
202 1 3.3884908541627283e+01 2.2137954376574925e+01 2.7867646341344827e+01 2 -1 0
74 2 3.0987756819045323e+01 2.0430986936592006e+01 2.7871035656754923e+01 -2 -1 -2
203 2 3.3143279630907742e+01 2.1571917144758896e+01 2.7915551402270147e+01 2 -1 0
36 2 3.3753279073661155e+01 2.3610540863068266e+01 2.7152966031452205e+01 0 -1 0
106 1 3.3796446736956597e+01 2.4511667073456422e+01 2.6703081472525337e+01 0 -1 0
33 2 3.7137372222278813e+01 2.4542057057940042e+01 2.6386073879415889e+01 -2 -4 1
307 1 3.5143090190830712e+01 2.2302637197967645e+01 2.3471757685765468e+01 -3 0 1
308 2 3.5640365828527230e+01 2.1789958222227369e+01 2.4147696657559649e+01 -3 0 1
414 2 3.5823737671013184e+01 2.0811521488958999e+01 2.6074125085143748e+01 1 -3 1