LAMMPS data file via write_data, version 2 Jun 2020, timestep = 12723000

648 atoms
2 atom types

2.0005805639359227e+01 3.8903194360628255e+01 xlo xhi
2.0005805639359227e+01 3.8903194360628255e+01 ylo yhi
1.3809805639354455e+01 3.2707194360629579e+01 zlo zhi

Masses

1 15.9994
2 1.00794

Atoms # atomic

74 2 2.3332796373565948e+01 2.1240101519903227e+01 1.7787643339376469e+01 -1 1 -2
642 2 2.3434817586647007e+01 2.3078173633047424e+01 1.6241133521176753e+01 1 1 3
199 1 2.2893714198299172e+01 2.4123568352648405e+01 1.5184862792968209e+01 1 0 -1
640 1 2.4026216795681073e+01 2.2459535371189656e+01 1.6797467105518972e+01 1 1 3
73 1 2.2633250944486022e+01 2.0564383200313543e+01 1.8131304952888293e+01 -1 1 -2
51 2 2.2107618097198714e+01 2.0110399066776043e+01 1.7425678244277215e+01 0 1 -2
186 2 2.0288538727695581e+01 2.1598560771292707e+01 1.4578467383758108e+01 -2 1 -2
177 2 2.3481391140199293e+01 2.4697778064459328e+01 1.4671717855520232e+01 1 0 -1
200 2 2.2149173188469966e+01 2.4721670573997930e+01 1.5572149577278834e+01 1 0 -1
641 2 2.4570089354846282e+01 2.1834751153103035e+01 1.6194915614987224e+01 1 1 3
183 2 2.0149551282632356e+01 2.4475076360087467e+01 1.7051647319090332e+01 1 3 -2
182 2 2.0293971431212405e+01 2.3445967371373545e+01 1.8245565311692037e+01 1 3 -2
492 2 2.1638335777564699e+01 2.3560734960696930e+01 1.4098534678360645e+01 -1 3 2
633 2 2.5113248992554961e+01 2.3730294579991380e+01 1.7593697378081746e+01 1 -1 0
300 2 2.8244971421101688e+01 2.3553243886987897e+01 1.4125540890877781e+01 3 1 1
178 1 2.5739746458318933e+01 2.1048782391330811e+01 1.5287198899233378e+01 1 1 -1
179 2 2.6200348559654444e+01 2.1664260014527045e+01 1.4699587655490342e+01 1 1 -1
370 1 2.8979855002725991e+01 2.3955679528610851e+01 1.4749419224377911e+01 3 1 1
583 1 2.5771929303675844e+01 2.4314426451171563e+01 1.7973842926817440e+01 0 -1 0
371 2 2.8485633264452368e+01 2.4588452442800136e+01 1.5313221260849007e+01 3 1 1
308 2 2.4880671367205885e+01 2.0126928242798204e+01 1.3928804432128087e+01 1 -1 -1
108 2 2.6425027123956660e+01 2.0554379133876665e+01 1.5752736337470481e+01 1 1 -1
505 1 2.8935183215212039e+01 2.1493285240567026e+01 1.7847708210219920e+01 1 1 3
506 2 2.8478829228997174e+01 2.2238299665469924e+01 1.8350148432799635e+01 1 1 3
483 2 2.9589419447705641e+01 2.1887472765999576e+01 1.7139057500134989e+01 2 1 3
93 2 3.0074531053649988e+01 2.3112086309313444e+01 1.5437522882395843e+01 1 -3 -1
91 1 3.0730670771715616e+01 2.2822820374390403e+01 1.6100618727719127e+01 1 -3 -1
92 2 3.1315808323552339e+01 2.2207943139490435e+01 1.5601079834538684e+01 1 -3 -1
43 1 3.2497479982606244e+01 2.1012816798494935e+01 1.4413767582197524e+01 -2 0 -1
36 2 3.1482728733692447e+01 2.3626552094963696e+01 1.7666352827942138e+01 -1 -2 3
44 2 3.2720579052485220e+01 2.1903040551074131e+01 1.4101293385085619e+01 -2 0 -1
106 1 3.2081576856544338e+01 2.3990442430668459e+01 1.8298054975552397e+01 -1 -2 3
181 1 3.8557438883350770e+01 2.3986677934611620e+01 1.7716483007850712e+01 0 3 -2
184 1 3.8674454909885540e+01 2.0884935825599648e+01 1.4993789045900833e+01 -3 1 -2
185 2 3.7965250760346983e+01 2.1427451644601028e+01 1.5369028673853055e+01 -3 1 -2
318 2 3.7486223088898647e+01 2.3016717858878312e+01 1.6892582292023434e+01 0 -1 -2
316 1 3.6913593208931317e+01 2.2465669048846763e+01 1.6289179506268322e+01 0 -1 -2
317 2 3.6445720266159725e+01 2.3102266888094871e+01 1.5744739319039356e+01 0 -1 -2
144 2 3.5577207114213067e+01 2.1527781831386459e+01 1.7351060678028965e+01 -1 0 -1
142 1 3.5085110075197363e+01 2.1060898919464041e+01 1.8052174465642363e+01 -1 0 -1
143 2 3.4496984166920889e+01 2.0487351723882227e+01 1.7520532703585310e+01 -1 0 -1
286 1 3.5071455500424605e+01 2.4111827342658650e+01 1.4764111043096934e+01 1 0 0
288 2 3.4562098133795715e+01 2.4468925439543320e+01 1.5474579471480647e+01 1 0 0
466 1 2.1252015451865436e+01 2.5755756757262013e+01 1.6262856859095145e+01 0 0 0
612 2 2.1815553862013353e+01 2.6237156358969184e+01 1.6856861822275576e+01 0 1 0
498 2 2.3102008307028807e+01 2.7893148875992075e+01 1.7183614130244628e+01 -1 2 0
467 2 2.0617314019901762e+01 2.6398976040942976e+01 1.5897001074996187e+01 0 0 0
517 1 2.4295550706990618e+01 2.8959866437009833e+01 1.6371923388003463e+01 -2 -1 0
496 1 2.2537526960386010e+01 2.7351115351764264e+01 1.7796954104747861e+01 -1 2 0
497 2 2.3125946099047461e+01 2.6710013200458661e+01 1.8312040028448052e+01 -1 2 0
518 2 2.4991577177286615e+01 2.8426687788587962e+01 1.5954706526155372e+01 -2 -1 0
276 2 2.6865391453769341e+01 2.5047927859073198e+01 1.6758173258237104e+01 -1 3 3
346 1 2.7532561725484776e+01 2.5691521747715623e+01 1.6357517628804725e+01 -1 3 3
155 2 2.6546071775863439e+01 2.6757203145884066e+01 1.5702901479895862e+01 0 0 0
347 2 2.8106359474444439e+01 2.6223933011632965e+01 1.7029864211963190e+01 -1 3 3
154 1 2.5913568497734509e+01 2.7344105523064542e+01 1.5079573720599317e+01 0 0 0
84 2 2.6568020980967255e+01 2.7898554833572518e+01 1.4510011096811542e+01 0 0 0
244 1 2.8959177921025205e+01 2.7120605537004344e+01 1.8190516413017701e+01 0 0 0
509 2 2.4943566478218170e+01 2.6553634069979289e+01 1.4059932350760528e+01 -1 1 -1
401 2 2.8102071726322428e+01 2.9425074974033791e+01 1.3958568503896482e+01 3 1 0
246 2 2.9711436976158158e+01 2.7550731421491999e+01 1.7735908848585382e+01 0 0 0
447 2 3.3060096960937884e+01 2.4788711359101601e+01 1.7181595350532206e+01 -1 2 0
430 1 3.0755392062726862e+01 2.8529633501265021e+01 1.6729977016973095e+01 1 2 3
424 1 3.2141615628954938e+01 2.7187367319800163e+01 1.5018134791463199e+01 1 0 -1
425 2 3.1507212856685292e+01 2.7741309868986193e+01 1.5595565480377845e+01 1 0 -1
426 2 3.1497069640567084e+01 2.6631376632670115e+01 1.4574435768717359e+01 1 0 -1
446 2 3.2817195824386722e+01 2.5949496805589707e+01 1.6024893411387421e+01 -1 2 0
445 1 3.3474181614697834e+01 2.5518064163833753e+01 1.6675857165903331e+01 -1 2 0
587 2 3.2892512064151802e+01 2.8152244965775374e+01 1.3912791850251253e+01 1 1 2
431 2 3.1427718352274887e+01 2.9103639002261538e+01 1.7140901128003037e+01 1 2 3
432 2 3.0182851756126141e+01 2.9184614646184812e+01 1.6317900460668707e+01 1 2 3
287 2 3.5494660662875454e+01 2.4894964513639323e+01 1.4441187175899733e+01 1 0 0
444 2 3.8742522949020596e+01 2.7927556633413559e+01 1.4570699560888892e+01 -1 -1 1
514 1 3.8181344227586877e+01 2.7289596276569561e+01 1.5008743053599860e+01 -1 -1 1
165 2 3.4729285616229120e+01 2.6419426911515114e+01 1.7568030630901138e+01 -2 -1 -1
408 2 3.7317484575071262e+01 2.8553726088602438e+01 1.6130527823988434e+01 0 -1 2
407 2 3.6435197605073803e+01 2.8334371669419500e+01 1.7397819126604368e+01 0 -1 2
515 2 3.7662915910057507e+01 2.6749260788666998e+01 1.4339945979888379e+01 -1 -1 1
406 1 3.6751298653235267e+01 2.9045696707856649e+01 1.6797356621127175e+01 0 -1 2
163 1 3.5431312570017766e+01 2.6914566622137578e+01 1.8087275984301250e+01 -2 -1 -1
164 2 3.6017379860148409e+01 2.6213640861874605e+01 1.8352198464101395e+01 -2 -1 -1
519 2 2.3997394099470760e+01 2.9624128985423024e+01 1.5600931480372724e+01 -2 -1 0
235 1 2.1827057836574951e+01 3.1805449904066162e+01 1.6361181529256921e+01 -2 1 2
96 2 2.2517414104743892e+01 3.1060185971121115e+01 1.4989787377743500e+01 -1 0 1
236 2 2.2237598162140163e+01 3.2407027148704422e+01 1.6988142865453614e+01 -2 1 2
94 1 2.2830793087958178e+01 3.0389010749997851e+01 1.4381577721100880e+01 -1 0 1
237 2 2.1101835626946070e+01 3.1447772570571836e+01 1.6912814348449775e+01 -2 1 2
48 2 2.0191502443505865e+01 3.3483974372973250e+01 1.5707905028443331e+01 4 -3 0
220 1 2.3129224676749441e+01 3.3306973531089852e+01 1.8249508737979937e+01 0 -1 -1
222 2 2.3823061340337127e+01 3.3708423759627941e+01 1.7686572993840414e+01 0 -1 -1
338 2 2.4917641665958470e+01 2.9624123728370652e+01 1.7678903279779039e+01 0 1 -1
638 2 2.6751685872911644e+01 3.1208187160417332e+01 1.7489062708681395e+01 0 -1 2
637 1 2.7343194739171722e+01 3.1335080274636226e+01 1.6675924102950141e+01 0 -1 2
206 2 2.8470275195813549e+01 3.0304981587044747e+01 1.5878782947646298e+01 1 1 3
639 2 2.8083312541125153e+01 3.1806844048100508e+01 1.7193695744652722e+01 0 -1 2
297 2 2.6776271454288601e+01 3.2763854233293586e+01 1.5450867319660640e+01 1 -1 0
319 1 2.6253665496545196e+01 3.3151367858128907e+01 1.4712587923886275e+01 1 -1 0
205 1 2.9083647909209585e+01 2.9956355431511369e+01 1.5236581048143938e+01 1 1 3
337 1 2.5365698270252032e+01 3.0111569741805049e+01 1.8428899318023429e+01 0 1 -1
253 1 2.9131550791835437e+01 3.2765795171555411e+01 1.8042507031440937e+01 -2 -1 1
350 2 2.5244774925974241e+01 3.4025665345634728e+01 1.5820849968917170e+01 -3 2 3
320 2 2.6890270620978143e+01 3.3871553525409773e+01 1.4368404854512338e+01 1 -1 0
488 2 3.2909990402940551e+01 3.0677806798188680e+01 1.7653496830058430e+01 1 1 -2
579 2 3.3210001046598592e+01 3.3112118487614914e+01 1.6201712674101174e+01 -1 1 0
646 1 3.2118710510443563e+01 3.4045221103695567e+01 1.5406709630079275e+01 -1 0 3
457 1 3.3687024504123634e+01 3.2405680622702306e+01 1.6748224157106016e+01 -1 0 0
487 1 3.2538786301587415e+01 2.9880913549107156e+01 1.7932229744237230e+01 1 1 -2
458 2 3.4096480813101834e+01 3.1819095032379963e+01 1.6075331350827117e+01 -1 0 0
254 2 2.9854347783913994e+01 3.2194497860940551e+01 1.8491538486644433e+01 -2 -1 1
207 2 2.9571111828263891e+01 3.0797890575054730e+01 1.4938333938261248e+01 1 1 3
551 2 3.0903642076541622e+01 3.2628676136080031e+01 1.4178152719676842e+01 0 1 0
471 2 3.4460572268837026e+01 2.9758911978723777e+01 1.4282519714984943e+01 -1 1 1
523 1 3.8690072278404415e+01 3.0354552366478877e+01 1.8165995588567618e+01 0 2 2
525 2 3.8044785268874307e+01 2.9628754064185323e+01 1.7843939606430016e+01 0 2 2
470 2 3.5589280330881934e+01 2.9883169354919819e+01 1.5430728265683708e+01 -1 1 1
227 2 3.4802093665955546e+01 3.3245761299540852e+01 1.7586155200273971e+01 -2 -4 -3
469 1 3.4915756946423151e+01 3.0372042574865837e+01 1.4888833978579335e+01 -1 1 1
226 1 3.5410614191100841e+01 3.3886367295082273e+01 1.8090293465581862e+01 -2 -4 -3
46 1 3.8399220256563062e+01 3.3800341794184519e+01 1.5185823085608030e+01 3 -3 0
54 2 3.6781292373017479e+01 3.2408856335946894e+01 1.4175853450216692e+01 -1 -1 2
59 2 2.0642364196189600e+01 3.4868107861150229e+01 1.4265358018977805e+01 4 -2 0
397 1 2.1115552671123666e+01 3.7710174012213976e+01 1.6295566732737896e+01 2 -1 -3
451 1 2.3279251065354636e+01 3.6619699740859218e+01 1.5175321421069878e+01 0 0 0
453 2 2.3701959352784655e+01 3.5836044367483879e+01 1.5588756207274232e+01 0 0 0
452 2 2.2577877784280719e+01 3.6952335431876826e+01 1.5737138401710030e+01 0 0 0
349 1 2.4666385426703314e+01 3.4576165666681291e+01 1.6406872674572647e+01 -3 2 3
398 2 2.0383471410793366e+01 3.7129972943441167e+01 1.6687700466636326e+01 2 -1 -3
399 2 2.0579981019143041e+01 3.8460172119915399e+01 1.5986374914762415e+01 2 -1 -3
309 2 2.3917838132555580e+01 3.7908628765764419e+01 1.4428013110992016e+01 1 -2 -1
204 2 2.2144252112640217e+01 3.5678900969709602e+01 1.4081705745791817e+01 4 -1 0
351 2 2.5206522192611803e+01 3.5163497103364683e+01 1.6944622550289083e+01 -3 2 3
123 2 2.7772232334442016e+01 3.8808949851925505e+01 1.7241032089870167e+01 -1 -4 1
145 1 2.7118695953178005e+01 3.8264449998231882e+01 1.6784220047830711e+01 -2 -4 1
146 2 2.7604828655417293e+01 3.7767369115765078e+01 1.6063553445100620e+01 -2 -4 1
251 2 2.6144211842942589e+01 3.7163208092770518e+01 1.7786755007359556e+01 -1 -2 -1
250 1 2.5815375684268659e+01 3.6344580942713051e+01 1.8225893730272503e+01 -1 -2 -1
27 2 2.8132333145241759e+01 3.5866312720307469e+01 1.4037114984863305e+01 3 -3 0
301 1 2.8883366466004873e+01 3.7169682378574791e+01 1.5015127206352471e+01 2 -3 3
302 2 2.9433071788657550e+01 3.6684747870033640e+01 1.5590272584555985e+01 2 -3 3
396 2 2.4885111443440735e+01 3.6599143512946107e+01 1.8351025651532780e+01 -1 -1 -1
647 2 3.1401083260499909e+01 3.4470018759555181e+01 1.5884503704961720e+01 -1 0 3
648 2 3.2502629734156812e+01 3.4682433694879968e+01 1.4709072022566787e+01 -1 0 3
303 2 2.9520792735753297e+01 3.7634278425353955e+01 1.4397344880588770e+01 2 -3 3
621 2 3.2966134398123756e+01 3.8857061040644957e+01 1.5688217670770802e+01 2 1 0
264 2 2.9911862067918570e+01 3.4531381422556763e+01 1.7087214642476606e+01 -1 -2 -1
620 2 3.2824090459097846e+01 3.7744670960938322e+01 1.6974098535523414e+01 2 1 0
263 2 3.0721760377687840e+01 3.5890015005898860e+01 1.7115313419317712e+01 -1 -2 -1
262 1 3.0317507026064536e+01 3.5198563536301933e+01 1.6545041979684004e+01 -1 -2 -1
64 1 3.1456712231885305e+01 3.6937956934334679e+01 1.8256793802928168e+01 4 1 3
619 1 3.3381288452217838e+01 3.8206310913225650e+01 1.6318697634917363e+01 2 1 0
212 2 3.4104656450952568e+01 3.6053765105656211e+01 1.3862656781914243e+01 1 -1 -2
47 2 3.7834379314220662e+01 3.4321983016922665e+01 1.5747950159531539e+01 3 -3 0
76 1 3.8059737631063186e+01 3.6371137054708370e+01 1.8072255903667610e+01 0 -1 -3
305 2 3.6075808653747558e+01 3.4927985637888391e+01 1.6845167620378337e+01 0 1 2
429 2 3.4549966178842176e+01 3.7323940295075211e+01 1.5625893431790239e+01 -1 -2 0
306 2 3.7194266282163262e+01 3.5844759773533184e+01 1.6899559274583023e+01 0 1 2
304 1 3.6641444712063404e+01 3.5375817392632868e+01 1.6204357134414145e+01 0 1 2
428 2 3.5574644285427254e+01 3.6202480281261202e+01 1.5458051475177184e+01 -1 -2 0
427 1 3.4910634364290637e+01 3.6733409366916007e+01 1.4953160497795640e+01 -1 -2 0
176 2 3.5892739230889369e+01 3.8165154044829258e+01 1.3875266477817037e+01 -4 -1 -1
77 2 3.8791219354214810e+01 3.5899900165333676e+01 1.8513825564932038e+01 0 -1 -3
507 2 2.1561701333150971e+01 2.1821777974408693e+01 1.8739486435697273e+01 -1 -2 2
601 1 2.1180916179378848e+01 2.2547923258431005e+01 1.9287386649521686e+01 -1 -2 2
602 2 2.1884706627974044e+01 2.2854525545210727e+01 1.9877900044724818e+01 -1 -2 2
536 2 2.3373512223951270e+01 2.3598596906294890e+01 2.1624658962756570e+01 2 0 -1
535 1 2.2749260248063237e+01 2.3844163090172472e+01 2.0926105576117848e+01 2 0 -1
513 2 2.3427224909802206e+01 2.4286474800628572e+01 2.0345271553727173e+01 2 0 -1
419 2 2.0105333154376591e+01 2.1583430835320247e+01 2.0563080189488861e+01 -1 -2 0
32 2 2.0694322783280629e+01 2.0073633925151615e+01 2.2102305855951602e+01 2 0 0
628 1 2.4087990734074836e+01 2.2712241775293158e+01 2.2931588884904659e+01 0 2 -1
584 2 2.6083695423436968e+01 2.3859911684508941e+01 1.8787431755209109e+01 0 -1 0
30 2 2.5040974677017694e+01 2.1464617070610007e+01 2.1919128648751439e+01 0 -1 -1
257 2 2.7703609648295963e+01 2.3798000173787131e+01 2.0676833525499191e+01 -1 3 0
256 1 2.7234139090115221e+01 2.3393785124142774e+01 1.9939817196265999e+01 -1 3 0
258 2 2.6844428254981455e+01 2.2577149085897215e+01 2.0324114115709037e+01 -1 3 0
28 1 2.5721987756615405e+01 2.0907023022663989e+01 2.1509446888323197e+01 0 -1 -1
29 2 2.6413732009402430e+01 2.0627074983408392e+01 2.2172064183167549e+01 0 -1 -1
409 1 2.8964094565498435e+01 2.4401172698380936e+01 2.1786356866204578e+01 0 1 -1
410 2 2.9434215888153616e+01 2.3769516852060718e+01 2.2362869649790113e+01 0 1 -1
107 2 3.2718441079246489e+01 2.3313521516983695e+01 1.8685825925273090e+01 -1 -2 3
578 2 3.1192795106679753e+01 2.1612269949638922e+01 2.2218917694261936e+01 0 0 4
577 1 3.1805119978311101e+01 2.0996513315805561e+01 2.1798811506717374e+01 0 0 4
171 2 3.3612824311852442e+01 2.2029788317923760e+01 2.0603663686287778e+01 0 1 1
49 1 3.3957635643742492e+01 2.2606983042694033e+01 1.9896748389765552e+01 0 0 1
555 2 3.1244049269288347e+01 2.0465949395150691e+01 2.1163711718573573e+01 1 0 4
113 2 3.3154009387355281e+01 2.0052288752951664e+01 2.2563761741034266e+01 -1 0 2
8 2 2.9801954206963575e+01 2.0443475422228833e+01 1.9203867808176902e+01 2 0 -1
50 2 3.4446276906721430e+01 2.2000694483518913e+01 1.9372013082460629e+01 0 0 1
418 1 3.8435757626258493e+01 2.1100991231186139e+01 2.1192511223328992e+01 -2 -2 0
348 2 3.8113426982248988e+01 2.1666772899946743e+01 2.1898326501157868e+01 -2 -2 0
38 2 3.6345605728235313e+01 2.3291470293608711e+01 2.2494188755216207e+01 -1 3 3
417 2 3.5012165413539712e+01 2.3715781830730403e+01 2.0656828213373824e+01 0 2 -2
37 1 3.6778384305962462e+01 2.2606779512125801e+01 2.3064358839487291e+01 -1 3 3
367 1 3.5365130443622370e+01 2.4409249494766676e+01 2.1266101658379895e+01 -1 2 -2
110 2 3.6417103284483318e+01 2.0142445600886838e+01 1.9226571253157122e+01 -1 3 0
531 2 2.4666494686115538e+01 2.5026268060433054e+01 1.8884397621122407e+01 -2 -2 3
461 2 2.1619736267378848e+01 2.4732404523253273e+01 2.2104962853510489e+01 0 -4 0
219 2 2.2178341520098463e+01 2.8579444751019548e+01 1.9123492495344099e+01 -1 -1 1
625 1 2.4073337793113613e+01 2.5548840126565960e+01 1.9501744168992250e+01 -2 -2 3
313 1 2.1707106137636909e+01 2.9273316498887716e+01 1.9658100048666544e+01 -1 -1 1
314 2 2.1193272418856754e+01 2.8677444230910801e+01 2.0251646332891603e+01 -1 -1 1
460 1 2.0996188611719791e+01 2.5329957182474516e+01 2.2531739813912509e+01 0 -4 0
97 1 2.4367393085834472e+01 2.8742090717151104e+01 2.2817050233076817e+01 -1 -1 -1
626 2 2.4691340049291352e+01 2.6196386625607644e+01 1.9909979383008626e+01 -2 -2 3
582 2 2.0536323919274935e+01 2.6826056739158851e+01 2.1693449115553541e+01 -1 1 0
580 1 2.0287161310910925e+01 2.7699612667535845e+01 2.1407090284514549e+01 -1 1 0
245 2 2.9268931952056398e+01 2.6604676416100279e+01 1.8989093059817158e+01 0 0 0
98 2 2.4843650453635526e+01 2.8444049540144334e+01 2.1948621373401632e+01 -1 -1 -1
485 2 2.8005584691888149e+01 2.8204053406915492e+01 1.9125774387915335e+01 1 0 0
147 2 2.7763041087754917e+01 2.5362485637806728e+01 2.2722856633808806e+01 4 0 -3
166 1 2.5804048703530448e+01 2.7318273870506502e+01 2.1076608730573842e+01 1 0 -2
167 2 2.6458143176382023e+01 2.7904596282361712e+01 2.0707911665284357e+01 1 0 -2
168 2 2.6187258513850740e+01 2.6742615357774081e+01 2.1778200066348610e+01 1 0 -2
484 1 2.7502480218124315e+01 2.8839601271807169e+01 1.9714160606119048e+01 1 0 0
486 2 2.8254913213559817e+01 2.9163618478926210e+01 2.0221437624205794e+01 1 0 0
315 2 2.9630060762943675e+01 2.4950961607702354e+01 2.1313971245736862e+01 0 1 -1
345 2 3.0779234010838202e+01 2.5357774558222779e+01 1.9404139154371670e+01 0 0 1
296 2 3.1168827495302658e+01 2.6383251694378263e+01 2.0697350399315102e+01 -1 0 1
295 1 3.0429186341939634e+01 2.5900976449273699e+01 2.0166713696520052e+01 -1 0 1
321 2 3.2726031965140308e+01 2.6184118818623979e+01 2.2370708084636806e+01 1 1 -2
343 1 3.2275288932021489e+01 2.6979590349582093e+01 2.1867631704877351e+01 1 1 -2
344 2 3.2893265306098293e+01 2.7442692093341499e+01 2.1291658859883182e+01 1 1 -2
608 2 3.1204290262012215e+01 2.7785007736013497e+01 2.2970618035147798e+01 0 1 1
67 1 3.3667303508524277e+01 2.5433164830223276e+01 2.3196373960754478e+01 1 2 -1
157 1 3.3951903061847858e+01 2.8691896054211554e+01 1.9691747387407968e+01 0 0 1
465 2 3.3178815904301466e+01 2.9439605289267210e+01 1.8573039586268731e+01 1 1 -2
69 2 3.4388640824965783e+01 2.5062048347087085e+01 2.2603700542414419e+01 1 2 -1
158 2 3.4357260353318026e+01 2.7838262379733319e+01 1.9421845246933422e+01 0 0 1
368 2 3.6038484561281436e+01 2.4900646762453952e+01 2.0832071278595762e+01 -1 2 -2
294 2 3.7716708280929140e+01 2.5037543362211931e+01 1.8920611293492541e+01 1 0 0
292 1 3.7584662776488990e+01 2.5609863489860796e+01 1.9700664637104182e+01 1 0 0
581 2 3.8468882981102567e+01 2.7977645707342738e+01 2.1979090483184788e+01 -2 1 0
293 2 3.8353275764893468e+01 2.5376072182207338e+01 2.0224769273987103e+01 1 0 0
159 2 3.4576243015525364e+01 2.9086249114770453e+01 2.0325286911998198e+01 0 0 1
221 2 2.3675634192499274e+01 3.2846654622306694e+01 1.8934441205307703e+01 0 -1 -1
291 2 2.2366981105161692e+01 3.0189612746143634e+01 2.0838178917572407e+01 1 -1 -1
386 2 2.3305571100179581e+01 3.0005013183371709e+01 2.1949737439853418e+01 1 -1 -1
385 1 2.2833054946436366e+01 3.0696723967970701e+01 2.1511735336951439e+01 1 -1 -1
572 2 2.4044097275024455e+01 3.1672632190308452e+01 2.0619704737408139e+01 -2 1 -2
571 1 2.4660491339836788e+01 3.2079530548237180e+01 1.9954091221013623e+01 -2 1 -2
160 1 2.1289124948702664e+01 3.2338104218914964e+01 2.3042265011384753e+01 -3 0 1
161 2 2.1835761404769343e+01 3.1817620239360217e+01 2.2363250231010014e+01 -3 0 1
162 2 2.0649776052905327e+01 3.2833432761122182e+01 2.2521799435745567e+01 -3 0 1
524 2 2.0517900854230515e+01 2.9942754411816495e+01 1.8727008233959413e+01 1 2 2
5 2 2.0449809471602507e+01 3.3891219977882379e+01 2.0394998208502692e+01 2 0 0
243 2 2.6002718820609221e+01 2.9532612497395718e+01 1.8802949495948511e+01 0 1 -1
573 2 2.4866346414117018e+01 3.1333886019573761e+01 1.9274683272424483e+01 -2 1 -2
80 2 2.6475048727469236e+01 3.2555213704070106e+01 2.0165277132704283e+01 -2 2 0
192 2 2.7513279475118953e+01 3.2447638336962513e+01 2.1729378606297452e+01 0 3 1
270 2 2.8633789958913443e+01 3.0605363780171857e+01 2.1843893211156729e+01 1 1 2
79 1 2.7283219393558220e+01 3.3036270699204877e+01 2.0240841969698536e+01 -2 2 0
268 1 2.9192263929960603e+01 2.9911362385214932e+01 2.1419980796125174e+01 1 1 2
255 2 2.8513855636306658e+01 3.2964171266388519e+01 1.8796522635822079e+01 -2 -1 1
190 1 2.7659773625820044e+01 3.1855959484719783e+01 2.2515618207188847e+01 0 3 1
129 2 2.7011584592802876e+01 3.3957104775321554e+01 2.0332691872690791e+01 -1 2 0
191 2 2.6684945997124849e+01 3.1661428648633013e+01 2.2852999929332906e+01 0 3 1
3 2 2.4893419900807285e+01 2.9463495742003140e+01 2.3143415504086512e+01 -1 -1 -1
269 2 2.9739619956612035e+01 2.9525128053277363e+01 2.2190364153079816e+01 1 1 2
234 2 3.0494337899162648e+01 3.0607717101407957e+01 2.0400829561850330e+01 0 1 1
233 2 3.1620821221909193e+01 3.0756350338896517e+01 1.9272821381633630e+01 0 1 1
232 1 3.1031487256890873e+01 3.1275010096003367e+01 1.9910819397473521e+01 0 1 1
468 2 3.3921843362977526e+01 3.2262346884302758e+01 2.1870197418495373e+01 1 -1 0
603 2 3.2031885999926644e+01 3.2645797164890816e+01 2.0539853195483591e+01 1 1 -2
481 1 3.2340298006837088e+01 3.3418551763960252e+01 2.0986337186819586e+01 1 0 -2
482 2 3.1486222133218288e+01 3.3956052771777202e+01 2.1121992044143642e+01 1 0 -2
538 1 3.4318282115090120e+01 3.1776218314052045e+01 2.2633960101183632e+01 1 -1 0
372 2 3.5772819087757526e+01 3.3293484159630673e+01 1.8719735460764987e+01 -2 -3 -3
512 2 3.6237143036344733e+01 2.9683007921385975e+01 2.2019729099385064e+01 0 -1 -1
561 2 3.5198888491120883e+01 3.0812961830847836e+01 2.1877805419063673e+01 1 -1 -1
599 2 3.7770245486244519e+01 3.1637751393989795e+01 1.8829110666868004e+01 -6 3 -2
6 2 3.8253320970854986e+01 3.2828119526894746e+01 2.0616019721494784e+01 1 0 0
598 1 3.7193905906486997e+01 3.2050130653211156e+01 1.9583677577057738e+01 -6 3 -2
600 2 3.6637065145733217e+01 3.1401305170558537e+01 2.0024740617278486e+01 -6 3 -2
511 1 3.5598536932760794e+01 3.0042965557162706e+01 2.1361287904231222e+01 0 -1 -1
4 1 3.8815520215472247e+01 3.3490918808764405e+01 2.1082899344402890e+01 1 0 0
459 2 2.3025197081760137e+01 3.7999614988941445e+01 2.2139146110502615e+01 2 0 1
554 2 2.4496307054840127e+01 3.8439383509893084e+01 2.1771814299826826e+01 2 0 1
266 2 2.2962989013067169e+01 3.7704457204898226e+01 1.8731190372048676e+01 1 -2 -2
265 1 2.3153191912047305e+01 3.6903270488343907e+01 1.9200696605802662e+01 1 -2 -2
422 2 2.1951970138327205e+01 3.4562338246896232e+01 1.8629690475944304e+01 0 -1 -1
387 2 2.3431923459157019e+01 3.7212590880772936e+01 2.0079165259791573e+01 1 -1 -2
553 1 2.3947783339765355e+01 3.7658047443478118e+01 2.1959341571097749e+01 2 0 1
423 2 2.1801038589937278e+01 3.5836821299419185e+01 1.9439233280205116e+01 0 -1 -1
421 1 2.1273608115069180e+01 3.5106102050318434e+01 1.9090183214433917e+01 0 -1 -1
31 1 2.1293855605179630e+01 3.8480619101327363e+01 2.2688611036112608e+01 2 -1 0
11 2 2.4292364123415574e+01 3.6059803269723297e+01 2.2584538208665972e+01 -1 1 2
9 2 2.0636653871212392e+01 3.7977946491542340e+01 2.3232510833508798e+01 2 -1 0
414 2 2.6244457596092239e+01 3.6002025688071271e+01 2.0048943461635563e+01 1 2 -1
412 1 2.6774853312151201e+01 3.5604536401087785e+01 2.0782847294740787e+01 1 2 -1
413 2 2.6211358826220945e+01 3.5531936285277794e+01 2.1532214543782619e+01 1 2 -1
279 2 2.8422637287806467e+01 3.7861076872490152e+01 2.2052520347218007e+01 -3 -1 1
278 2 2.8069419313382092e+01 3.6690483187613111e+01 2.0930941233999942e+01 -3 -1 1
277 1 2.8828730631826907e+01 3.7235209984615338e+01 2.1278817656977701e+01 -3 -1 1
10 1 2.4733041831662934e+01 3.5252209371624943e+01 2.2934471147863068e+01 -1 1 2
373 1 2.7734789859799413e+01 3.8778871663813163e+01 2.3139644321183212e+01 0 -2 1
489 2 2.9924461098594129e+01 3.5777234937115892e+01 2.1724699457690139e+01 3 0 -2
65 2 3.1185650049595665e+01 3.7644874034386660e+01 1.8847496787979701e+01 4 1 3
57 2 2.9629219281551887e+01 3.8206230044292752e+01 2.0343136987877990e+01 3 -1 -1
267 2 3.3174304844876112e+01 3.4694717177940070e+01 1.9892281516993876e+01 -2 -1 2
66 2 3.2135699817343330e+01 3.6470000201971658e+01 1.8730074835533138e+01 4 1 3
112 1 3.3781764676652585e+01 3.8389106200267797e+01 2.3059956172084842e+01 -1 -1 2
7 1 3.0299616888148964e+01 3.8752913687096310e+01 1.9878380462811240e+01 2 -1 -1
289 1 3.3686639170040642e+01 3.5447750093689784e+01 1.9458555324214185e+01 -3 -1 2
439 1 3.0492482097470564e+01 3.5160854527291704e+01 2.2211196980742734e+01 2 0 -2
440 2 3.0011176849072214e+01 3.4503509750360763e+01 2.2816978875606079e+01 2 0 -2
78 2 3.7837774223455810e+01 3.7095522453769831e+01 1.8679725107899749e+01 0 -1 -3
111 2 3.7435051590985552e+01 3.8827794565712068e+01 2.0444336630854924e+01 -1 2 0
290 2 3.4441485681655337e+01 3.4901425324872470e+01 1.8996839083045391e+01 -3 -1 2
114 2 3.4345592504441726e+01 3.7951556067800865e+01 2.2397902985609168e+01 -1 -1 2
591 2 3.4487673344140845e+01 3.6385080069432618e+01 2.0697584239092947e+01 -1 -1 3
109 1 3.6813947007676688e+01 3.8343255667984550e+01 1.9818437569212168e+01 -1 2 0
624 2 3.7551415458088357e+01 3.4576550422788458e+01 2.2225334835966990e+01 -1 1 1
590 2 3.5669979317196052e+01 3.7396469659894720e+01 2.0628728364581242e+01 -1 -1 3
589 1 3.5155761319755101e+01 3.6846485782429731e+01 2.1314122099059631e+01 -1 -1 3
623 2 3.6464003992242830e+01 3.5786433553885672e+01 2.1965556274832011e+01 -1 1 1
622 1 3.7026788846455190e+01 3.5296658167715862e+01 2.2661493958831553e+01 -1 1 1
629 2 2.3478178976434897e+01 2.2069257286128472e+01 2.3408425726337715e+01 0 2 -1
476 2 2.1715242859296445e+01 2.1745049832587135e+01 2.5512873971991862e+01 -1 1 0
118 1 2.2726040688130620e+01 2.0957108953461468e+01 2.4410917144540086e+01 0 1 5
475 1 2.1144029108591404e+01 2.2431452048701964e+01 2.5969273761601112e+01 -1 1 0
443 2 2.2126784404643406e+01 2.2932194649338239e+01 2.7187329822577983e+01 1 0 2
442 1 2.2770999240132667e+01 2.3457052719326850e+01 2.7706448512480204e+01 1 0 2
120 2 2.3395610760168598e+01 2.0320482829874479e+01 2.4784109527167157e+01 0 1 5
119 2 2.2286270291202229e+01 2.0437273184928703e+01 2.3738104799071376e+01 0 1 5
477 2 2.0542088988744087e+01 2.1976307082997618e+01 2.6528497245403216e+01 -1 1 0
630 2 2.4673011067400477e+01 2.3083972471093290e+01 2.3596059344161365e+01 0 2 -1
636 2 2.0265236440975379e+01 2.3459371333371134e+01 2.4805012414989317e+01 2 1 1
140 2 2.6940026008896972e+01 2.2472727166327104e+01 2.5634488366847332e+01 0 1 -3
141 2 2.6904689808378521e+01 2.1741489695899602e+01 2.6925644071661001e+01 0 1 -3
139 1 2.7491317018341924e+01 2.2135613109814777e+01 2.6283159309364660e+01 0 1 -3
546 2 2.8142608384013183e+01 2.3628663089246601e+01 2.6696105769484998e+01 1 2 2
210 2 2.9066460780851209e+01 2.0706944994142365e+01 2.5755113434220650e+01 1 0 1
151 1 2.5822518103946926e+01 2.0578551834773503e+01 2.7913218695716324e+01 -3 1 -2
375 2 2.8305575279537099e+01 2.0007217830829607e+01 2.3928641144492616e+01 0 -1 1
544 1 2.8541216165210020e+01 2.4369801769890383e+01 2.7174705485191815e+01 1 2 2
556 1 2.5703214648073089e+01 2.3895849142855035e+01 2.4765930774490904e+01 -1 -1 -1
558 2 2.6206995685923040e+01 2.4620153966232344e+01 2.4343848855448890e+01 -1 -1 -1
557 2 2.5260137356703154e+01 2.4377491322218305e+01 2.5494908285299687e+01 -1 -1 -1
55 1 3.0476250619362347e+01 2.2587583274020307e+01 2.3394730284456887e+01 0 -1 -2
208 1 2.9655407231026956e+01 2.0544271109521375e+01 2.4949001226115733e+01 1 0 1
33 2 3.0126233651687009e+01 2.1964761925683259e+01 2.4013714930861248e+01 0 -1 -2
56 2 3.1100611934075197e+01 2.3113817282060943e+01 2.3925563352161518e+01 0 -1 -2
102 2 3.2603459866320001e+01 2.3545765554052551e+01 2.5640018219082279e+01 1 0 0
60 2 3.2985065297562087e+01 2.1908005165287683e+01 2.7198128331035061e+01 -2 1 -2
100 1 3.2074110619037612e+01 2.4033371219303341e+01 2.5019833017248583e+01 1 0 0
437 2 3.1456638043055484e+01 2.0132972331075688e+01 2.7262231181778873e+01 -1 1 -1
436 1 3.1528707473363056e+01 2.0829760226093338e+01 2.7949255869238208e+01 -1 1 -1
101 2 3.1606544387551629e+01 2.4629177672585300e+01 2.5625600680889889e+01 1 0 0
130 1 3.3374592710476719e+01 2.2378129776842538e+01 2.6483496352112052e+01 -2 1 -2
131 2 3.3983161402681070e+01 2.1792959911673176e+01 2.5954230098319112e+01 -2 1 -2
39 2 3.7351288663954136e+01 2.3184630093076692e+01 2.3589459601746665e+01 -1 3 3
169 1 3.8417170979006777e+01 2.1534735559028146e+01 2.7910799007957053e+01 1 1 -1
240 2 3.4512293723872105e+01 2.3685160370956176e+01 2.6708865460038194e+01 -3 -4 0
473 2 3.5563857474545493e+01 2.1657786013181063e+01 2.4156274800932028e+01 0 2 -2
472 1 3.5063619378518517e+01 2.1186284165409145e+01 2.4793772848265487e+01 0 2 -2
238 1 3.4899788590153406e+01 2.4546834375820048e+01 2.7016341752049701e+01 -3 -4 0
474 2 3.4765577245970960e+01 2.0418726437595645e+01 2.4223894710550837e+01 0 2 -2
490 1 3.8549234064121777e+01 2.4149409437897027e+01 2.4415363298206366e+01 1 0 1
149 2 3.7592617597983256e+01 2.0166397509286885e+01 2.6448697437662229e+01 1 -1 -1
462 2 2.0570913782734916e+01 2.4919704504605548e+01 2.3312015146296478e+01 0 -4 0
500 2 2.2488657478917002e+01 2.6416521178205748e+01 2.3801677087020355e+01 -1 1 1
464 2 2.3565178329829234e+01 2.5318382394381469e+01 2.6650350398370886e+01 3 -2 3