LAMMPS data file via write_data, version 2 Jun 2020, timestep = 12723000

648 atoms
2 atom types

2.0220066310822084e+01 3.8688933689172806e+01 xlo xhi
2.0220066310822084e+01 3.8688933689172806e+01 ylo yhi
1.4024066310824843e+01 3.2492933689173775e+01 zlo zhi

Masses

1 15.9994
2 1.00794

Atoms # atomic

421 1 2.0753920516167764e+01 2.1364099377263958e+01 1.7590632553367062e+01 2 2 2
294 2 2.1946445705191390e+01 2.3988461606234605e+01 1.5062695664086224e+01 -1 1 3
292 1 2.1366213083094461e+01 2.4798164050904962e+01 1.5130910559698430e+01 -1 1 3
60 2 2.2685532467540625e+01 2.1851800231250902e+01 1.5632409080851859e+01 2 0 0
524 2 2.2626992452375195e+01 2.4178118571070197e+01 1.8516916036482620e+01 -1 -2 -1
648 2 2.4342762623437558e+01 2.1654675311086233e+01 1.7900571409655907e+01 -3 1 2
646 1 2.4062365126715356e+01 2.1529658393217783e+01 1.6960969304786271e+01 -3 1 2
422 2 2.1472962268850278e+01 2.1865368249446938e+01 1.8074799652279150e+01 2 2 2
647 2 2.4385987230665485e+01 2.2278494919966644e+01 1.6432525370525013e+01 -3 1 2
293 2 2.0418249512245151e+01 2.4570067598499584e+01 1.5297434559966128e+01 -1 1 3
423 2 2.0426388390620787e+01 2.2029820074340613e+01 1.6935642440234744e+01 2 2 2
130 1 2.2592852229842631e+01 2.2379473660699105e+01 1.4776685149052808e+01 2 0 0
131 2 2.2076184870169929e+01 2.1880374686921581e+01 1.4205986492091267e+01 2 0 0
336 2 2.6475181025035024e+01 2.3065073535587373e+01 1.5164107108982554e+01 2 1 3
334 1 2.5533227646157556e+01 2.3317174476993049e+01 1.5387724809348020e+01 2 1 3
315 2 2.6037189268791177e+01 2.1165400603677078e+01 1.6894526140764320e+01 0 -1 -3
595 1 2.8184930835905600e+01 2.2646656800191820e+01 1.4781210324905805e+01 1 2 4
597 2 2.8680171940991507e+01 2.3470831746612525e+01 1.4803918516210581e+01 1 2 4
335 2 2.5356834605438479e+01 2.4229493397117807e+01 1.5692309717400445e+01 2 1 3
21 2 2.8097645521255423e+01 2.1401977871612562e+01 1.7864218594981271e+01 -1 -2 -2
19 1 2.8754820992390986e+01 2.1834241932596633e+01 1.8438626597831455e+01 -1 -2 -2
291 2 2.9442330256315362e+01 2.3206445487711360e+01 1.7731656950810354e+01 0 -2 -1
409 1 2.6835757897755773e+01 2.0623773559386457e+01 1.7140912642378659e+01 0 -1 -3
385 1 2.9998233837956906e+01 2.3951091194314397e+01 1.7511712738388493e+01 0 -2 -1
281 2 3.2353876184537029e+01 2.2011045579869339e+01 1.7966336395845918e+01 1 2 1
280 1 3.2470038476457496e+01 2.1118240409818053e+01 1.7569147617276172e+01 1 2 1
221 2 3.1132036239185226e+01 2.2423999774034865e+01 1.4799281820113817e+01 -1 0 -1
220 1 3.1190545143316090e+01 2.1479574392949800e+01 1.4650309990154119e+01 -1 0 -1
474 2 3.3486490585654316e+01 2.0513110346490446e+01 1.6389776255329913e+01 2 2 0
386 2 3.0775247511923922e+01 2.3656269082282979e+01 1.8091625505022094e+01 0 -2 -1
352 1 3.1025769564995755e+01 2.4392543225066213e+01 1.5293895921186733e+01 1 2 1
282 2 3.2440460690779375e+01 2.0412451352043451e+01 1.8196194060584013e+01 1 2 1
222 2 3.1471605902091433e+01 2.1082392044544051e+01 1.5481435969648409e+01 -1 0 -1
354 2 3.0514195915296163e+01 2.4340033856215761e+01 1.6087572889955876e+01 1 2 1
353 2 3.1854372482826257e+01 2.4809994841471955e+01 1.5458389422664194e+01 1 2 1
537 2 3.3043814017674968e+01 2.4223077654821765e+01 1.8359994675475008e+01 -1 -1 -2
209 2 2.9635367223299696e+01 2.0645659545548966e+01 1.5457871852512831e+01 0 1 2
138 2 3.7135357685184694e+01 2.2934043829034181e+01 1.5836017378846613e+01 -3 6 2
136 1 3.7939126030223356e+01 2.3260051867386522e+01 1.6283202319158601e+01 -3 6 2
137 2 3.7648330153558248e+01 2.3821097678110490e+01 1.7025880176617530e+01 -3 6 2
153 2 3.5428285103166374e+01 2.1335873971834875e+01 1.5320170094789386e+01 -2 1 -2
175 1 3.6111246868690486e+01 2.1902060695045066e+01 1.4797531672923608e+01 -2 1 -2
176 2 3.6655744797077546e+01 2.1406474544224839e+01 1.4090679244462336e+01 -2 1 -2
472 1 3.4288987582600519e+01 2.0242021903997575e+01 1.5869452097309692e+01 2 2 0
258 2 3.7956524374962889e+01 2.1011395374854374e+01 1.8581296164560563e+01 -3 -5 1
317 2 2.2338638522723098e+01 2.5297521663900788e+01 1.6579634670608559e+01 5 -3 2
318 2 2.2903493552343527e+01 2.6469775045507962e+01 1.7338716395649595e+01 5 -3 2
316 1 2.3066794550078562e+01 2.5536826717139895e+01 1.7149327599720575e+01 5 -3 2
132 2 2.4497706569608944e+01 2.6783754329673524e+01 1.4325485631549329e+01 3 2 -2
203 2 2.3613556248607143e+01 2.8066146699972414e+01 1.4470094369245929e+01 3 2 -2
397 1 2.2572636344223643e+01 2.9125338174245741e+01 1.5870854480388163e+01 3 1 -2
399 2 2.2868195267586493e+01 2.9111801617924577e+01 1.6780485665637016e+01 3 1 -2
587 2 2.4650110789749821e+01 2.6009880186094410e+01 1.6216201063190844e+01 -3 2 -2
95 2 2.0565552724476120e+01 2.8396911925958086e+01 1.5802328579187019e+01 -1 2 -3
8 2 2.1134881017422025e+01 2.8801553001474709e+01 1.8584037494395361e+01 -3 -2 0
217 1 2.4886850535512849e+01 2.7682381829341534e+01 1.7862953884814800e+01 -1 0 0
411 2 2.5191588902700602e+01 2.8614876028345776e+01 1.7794561057133084e+01 0 1 0
586 1 2.5241976820871450e+01 2.5939367611292671e+01 1.5426859053741042e+01 -3 2 -2
218 2 2.5750523291280484e+01 2.7214586338610747e+01 1.8074077228852985e+01 -1 0 0
516 2 2.5901026454676519e+01 2.6611462403747989e+01 1.5561367770830692e+01 -3 2 -2
304 1 2.9213485340148839e+01 2.6299633436116284e+01 1.7841786236179537e+01 1 -4 -2
305 2 2.8364203630761118e+01 2.6329365485217032e+01 1.8295603234953770e+01 1 -4 -2
195 2 2.8393663865145616e+01 2.6864882895742859e+01 1.5911356711255026e+01 4 5 -1
1 1 2.7642669774635031e+01 2.7447071494461660e+01 1.5654218250984179e+01 3 4 -1
306 2 2.9370015894801163e+01 2.5408002358868131e+01 1.7624010918607791e+01 1 -4 -2
2 2 2.7606062787702957e+01 2.7341266293637190e+01 1.4667089611877522e+01 3 4 -1
543 2 2.8338903883869129e+01 2.9416605239222349e+01 1.6853189561942660e+01 3 1 -1
551 2 2.9846570740139541e+01 2.7618606378877679e+01 1.7275820483622372e+01 -1 1 -1
550 1 3.0390296580317056e+01 2.8332771654062828e+01 1.6843895235300582e+01 -1 1 -1
552 2 3.0185228720562534e+01 2.8473832628899693e+01 1.5913170971060010e+01 -1 1 -1
382 1 3.0680529453703286e+01 2.9134410441709441e+01 1.4203344368447961e+01 3 2 6
35 2 3.2137846000607723e+01 2.6998611693038001e+01 1.7338251636600095e+01 1 1 0
34 1 3.2709825716707108e+01 2.6613996015448752e+01 1.6603662342227992e+01 1 1 0
180 2 3.3307885424188640e+01 2.7211623542171584e+01 1.6095411484883847e+01 1 2 0
252 2 3.0202297569654746e+01 2.5537053918652273e+01 1.4249975094115243e+01 1 5 3
464 2 3.3908908322902882e+01 2.5823091887880913e+01 1.7463331397063357e+01 -2 -1 1
507 2 3.4106538989489316e+01 2.8699916272131127e+01 1.4840529395036254e+01 1 2 -2
339 2 3.5262620244035872e+01 2.9078085462085326e+01 1.6504167762396577e+01 0 3 -2
601 1 3.4708782658220457e+01 2.7986266783114075e+01 1.5178824630018436e+01 1 2 -2
55 1 3.7186175306558923e+01 2.5734587732268523e+01 1.7146494400873728e+01 -1 -2 1
96 2 3.7455643660390237e+01 2.8541288479000414e+01 1.5989843931785005e+01 -2 2 -3
94 1 3.8233504329313959e+01 2.7948719535570689e+01 1.6043137492469512e+01 -2 2 -3
56 2 3.7212259131427011e+01 2.6650927771626630e+01 1.6895216694348292e+01 -1 -2 1
602 2 3.5446518235698015e+01 2.7890725093920317e+01 1.4565578363021780e+01 1 2 -2
623 2 3.7524838592281299e+01 2.7216977020682631e+01 1.4381099663015666e+01 0 0 1
441 2 3.5472834925459253e+01 2.5232164906732539e+01 1.7482824354117636e+01 -2 -1 1
33 2 3.7680469267328363e+01 2.5579746754171392e+01 1.7917069947604137e+01 -1 -2 1
463 1 3.4557066631417790e+01 2.5088455554432823e+01 1.7815151785381207e+01 -2 -1 1
398 2 2.2612409520253038e+01 3.0025982014949840e+01 1.5569103919888081e+01 3 1 -2
146 2 2.4672369666960247e+01 3.0540660269864510e+01 1.6484711910386196e+01 -1 1 -1
145 1 2.4792172120664141e+01 3.0407777825843048e+01 1.7447050338169454e+01 -1 1 -1
310 1 2.2183174903976646e+01 3.2129698383345570e+01 1.6121759249159929e+01 -2 0 -1
311 2 2.2773200921223353e+01 3.2782686121985634e+01 1.5690136198312477e+01 -2 0 -1
312 2 2.1620442304099893e+01 3.2592219195194311e+01 1.6805064254059698e+01 -2 0 -1
575 2 2.1161096128864688e+01 3.1693558628757071e+01 1.5027946657195967e+01 2 -2 1
611 2 2.0586409034082017e+01 3.3275127046978795e+01 1.8339648287159093e+01 1 0 -1
148 1 2.4336385141350139e+01 3.0553254522963528e+01 1.4359434076981961e+01 1 3 1
509 2 2.4789633627837844e+01 3.3379642730163077e+01 1.8412687347854639e+01 -1 2 -1
150 2 2.4549264756467373e+01 3.1488428183768111e+01 1.4212022286861945e+01 1 3 1
610 1 2.0549485494741841e+01 3.3872597016231367e+01 1.7579154107992647e+01 1 0 -1
574 1 2.0453836959052307e+01 3.1241651518267425e+01 1.4419277052763061e+01 2 -2 1
49 1 2.3707510013030294e+01 3.4034377337989810e+01 1.4307825726982342e+01 -1 0 -3
123 2 2.5056580021192293e+01 3.1266857964075413e+01 1.7791894960154842e+01 0 1 -1
542 2 2.8186368870269632e+01 3.0191861311925202e+01 1.8124647518178172e+01 3 1 -1
541 1 2.7902509363115044e+01 3.0158272547641282e+01 1.7197383630372702e+01 3 1 -1
590 2 2.8428801145999287e+01 3.1443270003778863e+01 1.6162387410046403e+01 -2 1 5
149 2 2.5175368854574955e+01 3.0084470296975645e+01 1.4169276226873599e+01 1 3 1
589 1 2.8684062287127027e+01 3.1948133658312436e+01 1.5346064604345163e+01 -2 1 5
508 1 2.5332913569720198e+01 3.3021026735064687e+01 1.7620354233419878e+01 -1 2 -1
510 2 2.5096208841218242e+01 3.3743516255633239e+01 1.6970260367223016e+01 -1 2 -1
591 2 2.8216226909739209e+01 3.2828320107841371e+01 1.5420051182141973e+01 -2 1 5
572 2 2.7291136422342788e+01 3.2999519571975767e+01 1.8522089468912089e+01 0 2 -3
140 2 2.7023825557176927e+01 2.9964658387768417e+01 1.4923580887787898e+01 2 2 -2
629 2 3.2490703392115044e+01 3.0356083511830342e+01 1.5785512264847414e+01 0 -1 3
427 1 3.1354827486374553e+01 3.3494573812578587e+01 1.5800177690153667e+01 1 3 4
429 2 3.0653740951361335e+01 3.2842183162192264e+01 1.5935564058475379e+01 1 3 4
428 2 3.2201022962799371e+01 3.3025234019727890e+01 1.5806611404525304e+01 1 3 4
618 2 3.0981528008840201e+01 3.3776169716284357e+01 1.4114481656254609e+01 -1 -1 1
628 1 3.2949212423787216e+01 3.0153899450081788e+01 1.4915167178425818e+01 0 -1 3
630 2 3.2256931878676134e+01 2.9742770402318552e+01 1.4356373284293269e+01 0 -1 3
588 2 3.1436387387214921e+01 2.9961759792157629e+01 1.7315702885310248e+01 -1 -1 3
442 1 3.1989921032149688e+01 3.0728182395664991e+01 1.7313312059964286e+01 -1 -2 3
562 1 3.4050056129479096e+01 3.2642819085626186e+01 1.5769914425596157e+01 5 0 -5
549 2 3.1759413230624741e+01 3.2533235740060157e+01 1.8412464522131252e+01 0 -1 -1
443 2 3.2505552074302621e+01 3.0614835434970146e+01 1.8141121974993428e+01 -1 -2 3
361 1 3.5680572081595074e+01 2.9711568246277889e+01 1.7113440311473681e+01 -1 3 -2
362 2 3.5998289123519413e+01 3.0350633371182514e+01 1.6386669703475661e+01 -1 3 -2
434 2 3.7328076352969077e+01 3.1063648326767918e+01 1.4533874705768826e+01 -4 2 -1
492 2 3.4374074646107758e+01 3.1935487116347758e+01 1.5208709192737341e+01 5 0 -5
433 1 3.6407849351356973e+01 3.0898810435438278e+01 1.4772578278782984e+01 -4 2 -1
563 2 3.4283343509951401e+01 3.2417393349421232e+01 1.6675066770672721e+01 5 0 -5
236 2 3.5387283867584905e+01 3.3435885128193704e+01 1.4465832393857852e+01 0 -1 -1
235 1 3.6062130961435415e+01 3.4047734056488792e+01 1.4095555783197764e+01 0 -1 -1
129 2 3.4595358954668548e+01 3.0480698876848322e+01 1.8435860947447367e+01 -4 -1 0
392 2 3.7256922868947370e+01 2.9848857640160880e+01 1.8146130658666966e+01 0 2 -3
274 1 3.5929035611715811e+01 3.2873162823291977e+01 1.8162323458005236e+01 -2 -4 2
230 2 2.1244834954123924e+01 3.8439470244799828e+01 1.6864914132557765e+01 0 -4 3
50 2 2.4226731288124711e+01 3.4584296248317408e+01 1.4916119716798489e+01 -1 0 -3
229 1 2.1687874485304043e+01 3.7586139476484561e+01 1.6500278458210204e+01 0 -4 3
325 1 2.4065097821585432e+01 3.7880240572623556e+01 1.5365044101022116e+01 1 -2 -1
326 2 2.3149193052294862e+01 3.7731231060256974e+01 1.5688375479709064e+01 1 -2 -1
231 2 2.1171839682146892e+01 3.7362787770773515e+01 1.5659854625658728e+01 0 -4 3
644 2 2.0763929691257008e+01 3.6187617118307983e+01 1.4074356346175939e+01 0 2 0
435 2 2.2171929474774785e+01 3.6469610410466366e+01 1.7511819692630759e+01 2 -2 -1
327 2 2.4420227851421107e+01 3.8607427389668530e+01 1.5914386491019441e+01 1 -2 -1
540 2 2.1108726613681892e+01 3.4605966608526941e+01 1.7877858166195924e+01 1 0 -1
303 2 2.4690565836382504e+01 3.6388264839234779e+01 1.5865850663595362e+01 -1 -2 2
529 1 2.2210726368987434e+01 3.5954852960949331e+01 1.8308648125396928e+01 2 -2 -1
127 1 2.7210577410698132e+01 3.5387692628259295e+01 1.4529775784470756e+01 -3 -1 -3
309 2 2.5129084671511336e+01 3.7210758287998821e+01 1.8582145712918134e+01 0 -1 1
302 2 2.6075309946809597e+01 3.5790704154487145e+01 1.5760793117637313e+01 -1 -2 2
301 1 2.5236597519814822e+01 3.5695527071596025e+01 1.6215181702568874e+01 -1 -2 2
210 2 2.8383529198927135e+01 3.8552235293312187e+01 1.6243932929216250e+01 0 0 2
128 2 2.8037285885544001e+01 3.5749539164865801e+01 1.4822251314868387e+01 -3 -1 -3
208 1 2.9183422915668007e+01 3.8306858979660255e+01 1.5759859316465997e+01 0 0 2
410 2 2.6570681085825981e+01 3.8507693112977016e+01 1.7905646817019210e+01 0 -2 -3
632 2 2.9679973818931643e+01 3.6810444406051452e+01 1.5014980873314800e+01 0 0 2
631 1 2.9911832521816894e+01 3.5965788568866742e+01 1.4767315831036180e+01 0 0 2
473 2 3.3848845950733235e+01 3.8251099222302869e+01 1.5060422887622172e+01 2 1 0
279 2 3.2374983461322209e+01 3.6281784302079643e+01 1.4832446164733119e+01 -2 -4 0
277 1 3.2876171916018130e+01 3.6916381365138889e+01 1.4296805396211690e+01 -2 -4 0
600 2 3.3414825317175001e+01 3.4973432497691917e+01 1.8168933167048792e+01 -1 -1 0
598 1 3.3833040351306693e+01 3.5760585688142910e+01 1.8480575366092687e+01 -1 -1 0
643 1 3.8659543139909857e+01 3.6817428496576717e+01 1.4570354015644195e+01 -1 2 0
645 2 3.8182335290095594e+01 3.6119996900849330e+01 1.5150678861836459e+01 -1 2 0
417 2 3.7819774299922784e+01 3.4873399104771835e+01 1.6828633121864787e+01 2 0 0
367 1 3.7268868557376862e+01 3.5284448367673136e+01 1.6068019115292401e+01 1 0 0
518 2 3.5247341196606278e+01 3.7557226051556377e+01 1.7048181701455160e+01 1 -1 1
517 1 3.5973806693325784e+01 3.7195090837441427e+01 1.7529450727356728e+01 1 -1 1
519 2 3.6412860394835775e+01 3.6577452679143406e+01 1.6800488156090591e+01 1 -1 1
368 2 3.6929905240696613e+01 3.4577674614607830e+01 1.5533900250002835e+01 1 0 0
599 2 3.4658151120065355e+01 3.5962735043948747e+01 1.7963178445999958e+01 -1 -1 0
523 1 2.2422528322650056e+01 2.3407222732833908e+01 1.9090853929619612e+01 -1 -2 -1
525 2 2.2222528832728973e+01 2.3815297815983939e+01 1.9964395084417955e+01 -1 -2 -1
286 1 2.1180946136558731e+01 2.0662175823448649e+01 2.1863544144288479e+01 4 0 3
615 2 2.3875271203942610e+01 2.2423068510598490e+01 1.9486717711911471e+01 0 1 -2
613 1 2.4509794582179932e+01 2.1675277770221978e+01 1.9604275398007456e+01 0 1 -2
614 2 2.4250223607041470e+01 2.1036901682148052e+01 2.0220135725793924e+01 0 1 -2
288 2 2.1909668095503719e+01 2.1184941674122328e+01 2.1387216011902233e+01 4 0 3
479 2 2.7671229364082752e+01 2.2600490921606180e+01 1.9277945182395989e+01 0 -2 -1
480 2 2.6124647689116742e+01 2.2511295846335845e+01 1.9784050441828612e+01 0 -2 -1
478 1 2.6890771662826729e+01 2.3087302196767887e+01 1.9728956911599482e+01 0 -2 -1
283 1 2.7165083109388348e+01 2.0465578461545235e+01 2.1149064590554339e+01 -2 -1 1
284 2 2.6952188967701694e+01 2.0781221213951696e+01 2.2026233729447195e+01 -2 -1 1
285 2 2.8102523079835983e+01 2.0789340269700595e+01 2.1101360759520013e+01 -2 -1 1
477 2 2.7051219928313955e+01 2.4170038131003896e+01 2.2768362563697348e+01 1 2 -1
249 2 2.9020538151584923e+01 2.3929672548776132e+01 2.2176646680268057e+01 1 2 1
476 2 2.7168211493633564e+01 2.4051427536968561e+01 2.1250140187303600e+01 1 2 -1
475 1 2.7421715739306045e+01 2.4579661174718083e+01 2.2045679963724595e+01 1 2 -1
559 1 3.2374337462234969e+01 2.3647308374120318e+01 1.8751076440187283e+01 -1 -1 -2
20 2 2.9496137248969642e+01 2.1277806609947248e+01 1.8818023285274638e+01 -1 -2 -2
271 1 2.9932675223170556e+01 2.3565234974861912e+01 2.1989424163160368e+01 1 2 1
560 2 3.2722440963094996e+01 2.3175413289392004e+01 1.9542674558151916e+01 -1 -1 -2
521 2 3.2821546598698319e+01 2.2254911533294464e+01 2.1633069162503162e+01 -2 -2 -3
520 1 3.2205557711950199e+01 2.2065187289881251e+01 2.0928286382756998e+01 -2 -2 -3
522 2 3.1429446305688284e+01 2.2529350433040729e+01 2.1251615810090687e+01 -2 -2 -3
272 2 3.0475723145882981e+01 2.4213160549303900e+01 2.2499413406425454e+01 1 2 1
37 1 3.4433426268977890e+01 2.1362958894934611e+01 2.2963030525625410e+01 -1 0 -1
39 2 3.5060539853270569e+01 2.1589909509385667e+01 2.2279691997697846e+01 -1 0 -1
14 2 3.6658378067739179e+01 2.2322692114743269e+01 2.2025061169485490e+01 1 0 -3
92 2 3.5468416740130913e+01 2.3905348535425190e+01 2.0985691650019426e+01 1 -1 -2
91 1 3.5365045640342814e+01 2.4760160134316628e+01 2.0434966145155052e+01 1 -1 -2
13 1 3.6099467190364564e+01 2.2429498854886557e+01 2.1286546586108088e+01 1 0 -3
15 2 3.6318089657663734e+01 2.1743553880789442e+01 2.0693455563561081e+01 1 0 -3
161 2 3.8569169555086120e+01 2.1292065441049296e+01 2.2942515181607288e+01 0 -4 1
93 2 3.5036285710159007e+01 2.4525103571490675e+01 1.9609845218421373e+01 1 -1 -2
256 1 3.7202841081274400e+01 2.0682304970503925e+01 1.9138790189216760e+01 -3 -5 1
388 1 2.1292879587897858e+01 2.5779161915799424e+01 2.1276481198692242e+01 2 -2 1
389 2 2.2051495359591542e+01 2.6131356571267595e+01 2.0740278842474137e+01 2 -2 1
390 2 2.1240466777401341e+01 2.5902615390207593e+01 2.2247561164415242e+01 2 -2 1
57 2 2.2128044954076689e+01 2.8026515614151485e+01 1.9514262434535187e+01 -2 -2 0
7 1 2.2061041165690270e+01 2.8586640548186452e+01 1.8708919408554632e+01 -3 -2 0
608 2 2.4051006632611831e+01 2.7062934691149128e+01 1.9346209657128245e+01 5 1 0
607 1 2.3704669050317925e+01 2.6423331390668871e+01 2.0002625937479909e+01 5 1 0
585 2 2.4197557056646549e+01 2.6590233695170639e+01 2.0799492521204250e+01 5 1 0
51 2 2.6690937936404737e+01 2.4842558398570223e+01 1.8887185867502641e+01 4 0 1
73 1 2.6696898383102283e+01 2.5799310492856140e+01 1.8902934078633141e+01 3 0 1
74 2 2.6108953645868379e+01 2.5976322436532087e+01 1.9729093199013072e+01 3 0 1
111 2 2.6425105441539607e+01 2.6124238467972202e+01 2.1816037645675962e+01 1 1 2
109 1 2.5709356493634910e+01 2.6785916578047161e+01 2.1970819430110474e+01 1 1 2
110 2 2.6138033097687895e+01 2.7676512519673114e+01 2.1865914353075905e+01 1 1 2
625 1 2.6250007700557482e+01 2.9291580533850727e+01 2.1674877157237756e+01 -1 2 2
186 2 3.0819469350687974e+01 2.8494257711569112e+01 2.0176504948936067e+01 -1 -1 1
432 2 3.1883639543373320e+01 2.6653635601785385e+01 1.9932789440172741e+01 -1 -1 1
430 1 3.1505488379112435e+01 2.7179927439638700e+01 1.9141058241447400e+01 -1 -1 1
431 2 3.0705259948540501e+01 2.6644101916128371e+01 1.8881122371140560e+01 -1 -1 1
61 1 2.9551470442295450e+01 2.8086960790210206e+01 2.2949189891778886e+01 0 0 2
184 1 3.0673923487965098e+01 2.9086772508544122e+01 2.0911077090539397e+01 -1 -1 1
185 2 3.0124662499405240e+01 2.8587140785444735e+01 2.1551572006071300e+01 -1 -1 1
375 2 3.3943993108324023e+01 2.6108160179304306e+01 2.0962526437004989e+01 -4 -1 0
374 2 3.3443411266630136e+01 2.7383552432972888e+01 2.1346974596252249e+01 -4 -1 0
373 1 3.3114314423622105e+01 2.6442544955565069e+01 2.1275401568466361e+01 -4 -1 0
501 2 3.1870028962660143e+01 2.5801171286253446e+01 2.2909816256166842e+01 -2 0 0
167 2 3.8220367102123248e+01 2.6269828452378327e+01 2.0499943409012019e+01 3 -2 1
168 2 3.6796444702180544e+01 2.5777552817443883e+01 2.0050634101757364e+01 3 -2 1
166 1 3.7547090722603201e+01 2.6358861305202222e+01 1.9839817864606815e+01 3 -2 1
164 2 3.7233379496112619e+01 2.7949492522680909e+01 2.0868929948485750e+01 -1 1 -2
165 2 3.7360668388149151e+01 2.8549277564234941e+01 2.2308881314880448e+01 -1 1 -2
163 1 3.7289164280795546e+01 2.8829878534672201e+01 2.1367111907450788e+01 -1 1 -2
321 2 3.5435337611262192e+01 2.8852958675443730e+01 2.1427766370381647e+01 1 -1 2
343 1 3.4437278581139793e+01 2.8853792321059089e+01 2.1421697148932800e+01 1 -1 2
344 2 3.4138712312772149e+01 2.9190287510129366e+01 2.2323007548954198e+01 1 -1 2
116 2 2.3511290308404487e+01 2.9570145285222910e+01 1.9638091359116576e+01 -2 -1 -2
115 1 2.3613826356177473e+01 2.9706937230502469e+01 2.0638299893094068e+01 -2 -1 -2
260 2 2.3247288374259650e+01 3.1298997167425718e+01 2.0745377075576013e+01 -1 -2 3
261 2 2.3129153482731660e+01 3.2409636143549477e+01 2.1828712828932705e+01 -1 -2 3
259 1 2.2814471691419790e+01 3.2184915980055997e+01 2.0910978016717511e+01 -1 -2 3
117 2 2.4542103125854684e+01 2.9853849434392522e+01 2.0887119100231352e+01 -2 -1 -2
458 2 2.4302086381944164e+01 2.9658055690827581e+01 2.2901346437994484e+01 0 2 1
378 2 2.3346450068153835e+01 3.3752862044853771e+01 2.0058269794429965e+01 2 0 1
444 2 2.1155980887550172e+01 3.2156240300678661e+01 2.0149275544359387e+01 1 -4 3
514 1 2.0392249055495281e+01 3.2227948040700767e+01 1.9648154312456583e+01 1 -4 3
247 1 2.3742415021991619e+01 3.3675142834966721e+01 2.2765301769592391e+01 -1 -1 -1
531 2 2.6688042180896339e+01 2.9899839670942185e+01 2.1090018193608145e+01 -1 2 2
626 2 2.6634200324270115e+01 2.9565272358292411e+01 2.2512922461330604e+01 -1 2 2
418 1 2.8356761562319527e+01 3.0356935324098615e+01 1.9991988038708438e+01 1 -1 -2
348 2 2.9154224778552887e+01 3.0022162396349394e+01 2.0416402780793977e+01 1 -1 -2
419 2 2.8412525232586411e+01 3.1270919484160125e+01 1.9755611984422661e+01 1 -1 -2
571 1 2.7943121401763438e+01 3.3113787627390948e+01 1.9206549557094053e+01 0 2 -3
355 1 2.6138483547797460e+01 3.3888032361388852e+01 2.1176663798386631e+01 0 -2 -2
573 2 2.7426462796411684e+01 3.3272305598488074e+01 2.0020078326395371e+01 0 2 -3
356 2 2.6081769930246402e+01 3.3538165932134220e+01 2.2070600598467173e+01 0 -2 -2
547 1 3.2045160930823997e+01 3.3136206135782572e+01 1.9136359600630481e+01 0 -1 -1
548 2 3.1391401493657952e+01 3.3853486350745378e+01 1.9115250063339932e+01 0 -1 -1
27 2 3.0684392430231725e+01 3.1001052102318983e+01 2.1343645674172265e+01 -1 -3 -2
121 1 3.0461733650890650e+01 3.1949133481719691e+01 2.1379263356442937e+01 -1 -3 -2
122 2 3.0830979552235981e+01 3.2301782880992256e+01 2.0587563971564812e+01 -1 -3 -2
567 2 2.9912228252838560e+01 3.2911313588769112e+01 2.2740300416523290e+01 -1 1 1
143 2 3.3258832838078597e+01 3.2987709308926341e+01 2.0584621158295359e+01 3 -7 2
142 1 3.3910503366636874e+01 3.2974666998269711e+01 2.1324566843482181e+01 3 -7 2
79 1 3.3974637667410768e+01 3.0928863819760188e+01 1.9092197595976508e+01 -5 -1 0
80 2 3.3901846383632019e+01 3.0277466469368562e+01 1.9808867380833220e+01 -5 -1 0
449 2 3.3011164092638971e+01 3.2902277630714735e+01 2.2937351784909641e+01 3 -1 -1
369 2 3.7433680575182478e+01 2.9528046687250662e+01 1.9624093523163737e+01 0 2 -3
391 1 3.7906859960128060e+01 2.9812931923895349e+01 1.8828933818583625e+01 0 2 -3
144 2 3.4809605738852170e+01 3.2891739001638690e+01 2.1007182446285533e+01 3 -7 2
515 2 3.8567353196962230e+01 3.1349544295918200e+01 1.9349088427441533e+01 0 -4 3
206 2 3.7397353455650794e+01 3.2443189389071733e+01 2.1020458143760411e+01 2 5 -3
420 2 3.5464351542662513e+01 3.2203873063136925e+01 1.8666947651868409e+01 -2 -3 2
205 1 3.6588725970678070e+01 3.2843884376606013e+01 2.1341244372770820e+01 2 5 -3
275 2 3.6540376916055280e+01 3.3279567617779492e+01 1.8790000953122483e+01 -2 -4 2
242 2 3.6224700252397938e+01 3.1470455433926482e+01 2.2862608820577989e+01 2 -1 0
207 2 3.6939671620043555e+01 3.3591027567860209e+01 2.1840397578290816e+01 2 5 -3
287 2 2.0998857809487674e+01 3.8352074266903301e+01 2.1310483821839771e+01 4 -1 3
190 1 2.2626439040343396e+01 3.6023618215562799e+01 2.1992954983653380e+01 0 4 -2
376 1 2.3899696058345157e+01 3.4419551161036829e+01 1.9653602431409446e+01 2 0 1
377 2 2.3334199791870684e+01 3.4914118995505021e+01 1.9005329697152590e+01 2 0 1
530 2 2.1828534741607932e+01 3.6643687071934451e+01 1.8980909442417772e+01 2 -2 -1
151 1 2.0391013146500914e+01 3.7145176153136305e+01 2.0148847401559834e+01 0 5 0
465 2 2.3865582686626787e+01 3.7133738281066471e+01 2.1468213780705273e+01 4 -2 2
487 1 2.4294080546814854e+01 3.7927076455741528e+01 2.1172240527337031e+01 4 -2 2
191 2 2.2227975023554809e+01 3.6147925155505163e+01 2.2848898586935928e+01 0 4 -2
192 2 2.1887139488655439e+01 3.6142391420683595e+01 2.1345170877374219e+01 0 4 -2
225 2 2.3306683453065808e+01 3.4461636519182292e+01 2.2317873431886238e+01 -1 -1 -1
308 2 2.6187663787623311e+01 3.6131764183505119e+01 1.8683711528038987e+01 0 -1 1
307 1 2.5983900510251964e+01 3.7009385140371577e+01 1.9019109600308933e+01 0 -1 1
488 2 2.5240315001548346e+01 3.7846920236962447e+01 2.1314571792773037e+01 4 -2 2
233 2 2.9171399502671576e+01 3.5481629996639853e+01 2.0113294022663599e+01 1 0 1
446 2 2.7609266105214896e+01 3.6753586961679105e+01 2.0890711625247874e+01 0 3 2
447 2 2.7240822259707180e+01 3.5214405958507911e+01 2.1238271213842978e+01 0 3 2
357 2 2.5235756515656231e+01 3.4165053851766196e+01 2.0856484053929826e+01 0 -2 -2
445 1 2.7962396244117734e+01 3.5866240536206895e+01 2.1162760504484524e+01 0 3 2
459 2 2.8912973735310231e+01 3.6119375392103194e+01 2.2685827000171038e+01 -3 -2 2
234 2 2.9120663784723142e+01 3.4789002512859362e+01 1.8920339514388907e+01 1 0 1
621 2 3.0747567358259303e+01 3.8237793560496890e+01 2.0679522972217789e+01 1 1 3
232 1 2.9799606641378659e+01 3.5340113173588790e+01 1.9365696264323688e+01 1 0 1
619 1 3.0280910068479120e+01 3.8217083242032530e+01 1.9824740124368120e+01 1 1 3
620 2 3.0247999828217878e+01 3.7289122007364298e+01 1.9529586778136391e+01 1 1 3
18 2 3.2129150214194148e+01 3.6834574304894467e+01 2.1734836921732740e+01 -4 -2 1
16 1 3.1533634360486836e+01 3.7466598962387181e+01 2.2189015476689736e+01 -4 -2 1
17 2 3.0907577951037496e+01 3.6962028419513885e+01 2.2698832284001838e+01 -4 -2 1
605 2 3.3540586336923042e+01 3.4793975716812753e+01 2.1364501497548424e+01 -1 0 1
604 1 3.3600056570605730e+01 3.5765495192924142e+01 2.1166966237079265e+01 -1 0 1
606 2 3.3774853389403873e+01 3.5834388944876615e+01 2.0229074394908327e+01 -1 0 1
201 2 3.8307138050608984e+01 3.6424858769426166e+01 2.0613382345063087e+01 0 5 0
257 2 3.6707394049259122e+01 3.8459385585090402e+01 1.8643198223877178e+01 -3 -6 1
481 1 3.7892327112158107e+01 3.5339226396555972e+01 2.1979914794082106e+01 0 2 -1
152 2 3.8234414689111304e+01 3.7738272041099236e+01 1.9775956368575155e+01 -1 5 0
395 2 3.4740373066384606e+01 3.6558483025558587e+01 2.2329896975114824e+01 0 0 -1
482 2 3.8573601476633243e+01 3.5384493431637367e+01 2.2718725841135722e+01 0 2 -1
603 2 3.7164182877463801e+01 3.5828331616699877e+01 2.2432572342656407e+01 0 3 -1
394 1 3.5295014807468647e+01 3.6631590742645457e+01 2.3119623343886357e+01 0 0 -1
22 1 2.3001089263416013e+01 2.0778763134055851e+01 2.4096540365310911e+01 -1 2 2
23 2 2.2655590441634512e+01 2.0338504994480978e+01 2.3356320600654950e+01 -1 2 2
372 2 2.2412896622258835e+01 2.1688830994039879e+01 2.5410186686215404e+01 -4 1 3
226 1 2.2071777770571050e+01 2.2126882215540583e+01 2.6168889492210312e+01 -4 0 3
227 2 2.1348471942522583e+01 2.2631296576371870e+01 2.5837462323301356e+01 -4 0 3
489 2 2.2887550777464376e+01 2.3275390085644435e+01 2.7537875847012955e+01 3 -2 1
173 2 2.1306897686002021e+01 2.1228638581944214e+01 2.7444407339378326e+01 0 5 -2
158 2 2.5375066516088641e+01 2.0992622399599838e+01 2.3442825699466354e+01 0 3 2
157 1 2.6301608183353711e+01 2.1050783478415710e+01 2.3711577771930461e+01 0 3 2
64 1 2.6034456856980700e+01 2.3667757712594550e+01 2.7679489025966504e+01 -2 4 0
581 2 2.5812141091871045e+01 2.2078210671510703e+01 2.6655705589004100e+01 -1 0 -2
159 2 2.6306792123558655e+01 2.1003350160818446e+01 2.4692947623962286e+01 0 3 2
580 1 2.6097759716511472e+01 2.1213270138469618e+01 2.6398179115287789e+01 -1 0 -2
183 2 2.9096807855336344e+01 2.2577902158523909e+01 2.5256129084062273e+01 0 0 0
40 1 2.9438959614577676e+01 2.1514828498233900e+01 2.3880952427242534e+01 4 3 -2
181 1 2.9415542780149316e+01 2.3209387102873155e+01 2.5966683560303149e+01 0 0 0
582 2 2.6707783404337960e+01 2.0965036489352073e+01 2.7098050541456150e+01 -1 0 -2
639 2 2.9124616669816181e+01 2.2054618121328879e+01 2.7474687882348540e+01 2 1 -2
42 2 2.9644119980871338e+01 2.2229567358042317e+01 2.3277941485177383e+01 4 3 -2
182 2 3.0425816776911738e+01 2.3211798046956531e+01 2.5862836493930818e+01 0 0 0
438 2 3.2637558670897334e+01 2.1638908637327528e+01 2.4217952325653911e+01 -1 -1 0
41 2 3.0291234086545565e+01 2.1286113983719652e+01 2.4266312519164273e+01 4 3 -2
505 1 3.2047489002797199e+01 2.3569870195580840e+01 2.5293831924230137e+01 0 1 1
483 2 3.1788419519083003e+01 2.4325087950976126e+01 2.4714122856862872e+01 1 1 1
506 2 3.2629602024450207e+01 2.3944929916676589e+01 2.5924366290140266e+01 0 1 1
436 1 3.2100431486508889e+01 2.0834992337867217e+01 2.4263244891518205e+01 -1 -1 0
437 2 3.2228168693592416e+01 2.0425122844428031e+01 2.3412265472601312e+01 -1 -1 0
250 1 3.3569614411439900e+01 2.4424596607955653e+01 2.7665191547475249e+01 0 0 0
38 2 3.4812139765342586e+01 2.0512901723578686e+01 2.3283098239250464e+01 -1 0 -1
251 2 3.4377697816768858e+01 2.4042671707961674e+01 2.7355468244859043e+01 0 0 0
160 1 3.7770464332420097e+01 2.1690052577801261e+01 2.3376478616461803e+01 0 -4 1
400 1 3.8103922438799920e+01 2.3281800169332481e+01 2.5553462199174206e+01 2 4 0
402 2 3.8033995425263726e+01 2.2571338022963467e+01 2.4896939769678710e+01 2 4 0
162 2 3.7383184500656085e+01 2.0913869534572541e+01 2.3840581554421366e+01 0 -4 1
215 2 3.6527355283653620e+01 2.3139992710967910e+01 2.6521849092482590e+01 -1 3 0
401 2 3.8267352289449185e+01 2.4110083932112214e+01 2.5025401945722056e+01 2 4 0
216 2 3.5425645733058140e+01 2.2016300705496924e+01 2.7044289043753057e+01 -1 3 0
214 1 3.5712740871942344e+01 2.2976739649641033e+01 2.6998687214411287e+01 -1 3 0
460 1 3.4895217914557961e+01 2.0448258075586175e+01 2.7424985905073306e+01 0 -1 -1