LAMMPS data file via write_data, version 15 Apr 2020, timestep = 1000

576 atoms
2 atom types

0.0 17.8620488 xlo xhi
0.0 15.4561953 ylo yhi
0.0 21.9451352 zlo zhi

Masses

1 15.9994
2 1.00794

Atoms # atomic

1 1 3.7429594715163526e+00 1.2323127878516864e+00 2.1154861547715882e+00 0 0 0
2 2 3.7000034381501452e+00 3.5755501531113765e-01 1.6191871184055440e+00 0 0 0
3 2 4.4273123294368437e+00 1.7027911722324516e+00 1.6105255100974740e+00 0 0 0
28 1 3.5300782506196424e+00 1.3850225747527480e+00 4.7881435757165267e+00 0 0 0
29 2 3.5597067705455681e+00 1.4684813037238715e+00 3.7819210730054471e+00 0 0 0
30 2 2.7857952061404685e+00 1.9899804305498316e+00 5.0161521695730142e+00 0 0 0
31 1 1.1162374556696031e+00 2.9114156241532489e+00 5.5285406306641809e+00 0 0 0
32 2 8.8602394332231316e-01 3.8188883634269479e+00 5.2231750097834704e+00 0 0 0
34 1 1.3720249966679949e+00 2.6270089815990629e+00 7.6791558514278024e-01 0 0 0
35 2 2.2468043481000484e+00 2.3101841153468490e+00 1.0222815507144558e+00 0 0 0
36 2 1.3447281510474465e+00 3.5492374484885452e+00 1.1925163968956998e+00 0 0 0
12 2 5.7268672425028919e+00 4.3534809769211185e+00 4.8099788483717747e+00 0 0 0
13 1 6.0832068155035621e+00 2.2104542074348594e+00 9.5828397656762410e-01 0 0 0
14 2 6.9247774046241632e+00 1.9883882389881800e+00 1.4771722367132123e+00 0 0 0
17 2 4.9225670778872583e+00 2.1943444834250592e+00 5.4105127064801897e+00 0 0 0
23 2 5.8439197707013468e+00 4.1800689327897560e+00 1.3255647021590242e+00 0 0 0
25 1 8.0400152876348550e+00 1.7386235932756768e+00 5.1539347812429241e+00 0 0 0
26 2 7.1606676142034118e+00 2.1008757002406986e+00 5.3678879201748302e+00 0 0 0
27 2 7.9602822528823198e+00 7.2120090195582232e-01 5.2392531357617784e+00 0 0 0
46 1 8.3092765887671121e+00 1.7380641106577552e+00 2.4380120099216054e+00 0 0 0
48 2 8.3701169716185149e+00 1.8253004141114304e+00 3.4247079694021796e+00 0 0 0
10 1 5.8225142285373632e+00 5.2396547119284378e+00 4.4455378246242105e+00 0 0 0
11 2 5.7171033104395290e+00 5.1796403507529281e+00 3.4968430058000726e+00 0 0 0
22 1 5.8882180495909120e+00 5.1225851110506859e+00 1.4310879679964659e+00 0 0 0
47 2 9.0463970527701978e+00 2.0329237436539147e+00 1.8574646419350187e+00 0 0 0
324 2 1.0137956228779750e+01 3.4580036959038667e+00 9.3085707905999571e-01 0 0 0
322 1 1.0158907145794622e+01 2.5215751979566781e+00 6.7146800273277962e-01 0 0 0
289 1 1.2464784883971536e+01 1.3315214118222063e+00 1.8630224621360265e+00 0 0 0
290 2 1.2457810757144211e+01 3.9713262107207453e-01 1.5184418340014332e+00 0 0 0
291 2 1.1693058670990592e+01 1.7706747483189536e+00 1.3845367304018772e+00 0 0 0
316 1 1.2515288896774827e+01 1.5044832409614175e+00 4.6204342583854165e+00 0 0 0
317 2 1.1817537216524554e+01 2.0140617087837027e+00 5.0990694504354694e+00 0 0 0
318 2 1.2314294332977278e+01 1.5199241456414230e+00 3.6553662614270803e+00 0 0 0
307 1 1.0185426597240415e+01 5.0273050733465068e+00 1.4887412255692514e+00 0 0 0
292 1 1.0326362262518943e+01 5.0461820251955638e+00 4.4294204905605685e+00 0 0 0
308 2 1.0218559886774829e+01 5.0152077275691704e+00 2.4944750974581997e+00 0 0 0
300 2 1.4993798498713097e+01 4.2851233518836862e+00 4.7161516931606755e+00 0 0 0
301 1 1.4776676111855695e+01 2.6456211218429173e+00 8.2142869630285731e-01 0 0 0
302 2 1.5585231731665989e+01 2.3698394440093575e+00 1.3212192351458181e+00 0 0 0
303 2 1.3995875592402037e+01 2.3235758170017520e+00 1.3299040601731007e+00 0 0 0
304 1 1.4977396799941936e+01 2.6657087738083973e+00 5.1847512022207045e+00 0 0 0
305 2 1.5564789919232611e+01 2.0424085893389141e+00 4.7538857712914453e+00 0 0 0
306 2 1.4085581901453613e+01 2.2670264338333617e+00 5.0635655066952694e+00 0 0 0
311 2 1.4718655511221021e+01 4.2763615214708306e+00 1.1701942955493043e+00 0 0 0
313 1 1.7095471181754121e+01 1.1359313684258516e+00 4.4915982431617154e+00 0 0 0
314 2 1.7746412622437305e+01 1.7459184904876028e+00 4.8901823421059261e+00 0 0 0
315 2 1.7186893572857507e+01 2.4733744798756305e-01 4.9927157930548622e+00 0 0 0
334 1 1.6987761003305906e+01 1.5972090618027002e+00 1.9593707541459633e+00 0 0 0
335 2 1.7806101878948539e+01 1.9804768740938616e+00 1.6131118069931636e+00 0 0 0
336 2 1.7181919261939399e+01 1.3941713033361096e+00 2.9013215600352775e+00 0 0 0
298 1 1.4865306735110375e+01 5.1544000546725632e+00 4.3351318126522020e+00 0 0 0
310 1 1.4480891443534208e+01 5.1508325120624772e+00 1.6404678019287224e+00 0 0 0
312 2 1.4741530247079039e+01 5.0450099569742655e+00 2.6453418621910081e+00 0 0 0
4 1 1.4003929779180988e+00 5.2719792639405565e+00 4.3250822945178529e+00 0 0 0
19 1 1.3016109687166151e+00 5.4335161491861461e+00 1.6368237300526929e+00 0 0 0
5 2 6.4170384506027367e-01 5.8109080469779011e+00 4.6871049294040130e+00 0 0 0
6 2 2.2358789765841527e+00 5.7779934182790500e+00 4.5176473874509844e+00 0 0 0
7 1 3.4685385398120934e+00 6.7807483618984827e+00 5.3819412641272883e+00 0 0 0
8 2 4.2824569961164443e+00 6.3216003972561454e+00 5.1305874918921095e+00 0 0 0
9 2 3.5988134103167440e+00 7.6773102340419728e+00 5.0206685724055164e+00 0 0 0
20 2 2.0158747724650898e+00 5.9226672548775303e+00 1.1732220020628110e+00 0 0 0
21 2 1.3262528179518123e+00 5.5176239410146595e+00 2.5940024870035763e+00 0 0 0
37 1 3.6790758470130864e+00 6.6404433489269747e+00 6.3482604966083367e-01 0 0 0
38 2 3.6972017399260908e+00 7.5190791505128427e+00 1.0147623696230519e+00 0 0 0
49 1 3.5616713979864452e+00 9.1241605520156561e+00 1.7905612324996847e+00 0 0 0
50 2 2.7806867109952287e+00 9.6688367531209263e+00 1.5218997390673477e+00 0 0 0
51 2 4.4154014837604176e+00 9.5823349353283458e+00 1.4719099100450450e+00 0 0 0
76 1 3.5087990159049394e+00 9.1649865613179244e+00 4.5719195623538340e+00 0 0 0
77 2 2.6503743555348040e+00 9.6042977756039605e+00 4.7866607802573036e+00 0 0 0
78 2 3.5578319825441467e+00 9.1773332229821243e+00 3.5766950529011909e+00 0 0 0
81 2 4.6729062245376107e-01 9.7921518496697253e+00 5.2701912743680426e+00 0 0 0
83 2 6.4606649710045461e-01 1.0173655962318554e+01 1.5746416123796660e+00 0 0 0
24 2 5.0227351700327167e+00 5.4934807005018165e+00 1.0320360532817217e+00 0 0 0
40 1 7.8739789056809073e+00 6.4259233811435506e+00 8.6887792666401176e-01 0 0 0
41 2 7.0926045206998145e+00 5.8545397168014670e+00 1.1612405980292440e+00 0 0 0
42 2 8.6971064763952945e+00 6.0523577122615349e+00 1.2308444602229167e+00 0 0 0
44 2 7.3390445132653435e+00 5.9378055955279754e+00 5.2348794896034203e+00 0 0 0
45 2 8.1514306313210625e+00 7.3050028597557111e+00 5.1650172616673338e+00 0 0 0
62 2 6.5702800494563194e+00 1.0117985547758808e+01 1.4922003268668109e+00 0 0 0
66 2 5.2299904595347106e+00 1.0193113053920188e+01 4.7713834147326653e+00 0 0 0
73 1 8.1134476493429126e+00 8.9672638611446835e+00 4.5755061700182837e+00 0 0 0
74 2 7.2984597801809921e+00 9.4088196258326686e+00 4.8100005058823649e+00 0 0 0
75 2 8.2027774614435938e+00 8.9965337532918426e+00 3.6415919692525414e+00 0 0 0
94 1 7.8769842861327080e+00 9.1390800924647149e+00 1.7410918938879456e+00 0 0 0
95 2 8.6566236029395807e+00 9.6365604711049926e+00 1.3321987660651198e+00 0 0 0
96 2 7.9165135923736987e+00 8.1502403859560069e+00 1.3839812787389345e+00 0 0 0
372 2 1.0730785071985597e+01 9.9645882035100488e+00 1.1988300145371544e+00 0 0 0
368 2 9.2775954086553956e+00 9.9774382154381680e+00 5.2003434123237406e+00 0 0 0
309 2 1.0899061709242885e+01 5.6625992309264532e+00 1.2542011839319189e+00 0 0 0
294 2 9.6770675778876125e+00 5.6769960864731202e+00 4.8472788588437163e+00 0 0 0
293 2 1.1209689892009372e+01 5.4655627188710580e+00 4.7335793074111718e+00 0 0 0
297 2 1.2412521269314677e+01 7.2240765539646894e+00 5.3481252704731173e+00 0 0 0
325 1 1.2342298564449976e+01 6.7760297776338012e+00 9.6654889940309463e-01 0 0 0
326 2 1.3124565818410343e+01 6.2914622715372364e+00 1.2053424110666124e+00 0 0 0
337 1 1.2296193313444229e+01 9.2352246019792368e+00 1.7470293464512978e+00 0 0 0
338 2 1.2343624183560459e+01 8.2936505850805400e+00 1.4671757900253335e+00 0 0 0
339 2 1.3064721642968227e+01 9.6967364302330150e+00 1.2870189364597964e+00 0 0 0
364 1 1.2365827796840476e+01 9.0137413463205167e+00 4.6451302798980274e+00 0 0 0
365 2 1.2435226477575533e+01 9.2165845330504208e+00 3.6773407547727270e+00 0 0 0
366 2 1.1502930424615792e+01 9.5573334460983634e+00 4.8538974070968841e+00 0 0 0
299 2 1.4191666309856423e+01 5.5352768244699657e+00 4.9359661165603352e+00 0 0 0
328 1 1.6559470038270589e+01 6.6595900535379418e+00 7.4275577833098205e-01 0 0 0
329 2 1.7334546823562064e+01 6.2189358599019604e+00 9.7364713127158875e-01 0 0 0
330 2 1.5744088972243988e+01 6.2769213964381851e+00 1.1681119623097991e+00 0 0 0
331 1 1.6930259403320079e+01 6.6226517251319761e+00 5.4190126382267110e+00 0 0 0
332 2 1.6327268718650153e+01 6.1003141796921536e+00 4.8868275161803743e+00 0 0 0
350 2 1.5323767267754466e+01 9.8609756647552214e+00 1.1190784200159951e+00 0 0 0
353 2 1.3861560662690311e+01 9.9896628162681260e+00 5.2158348095764522e+00 0 0 0
361 1 1.6842066242530997e+01 9.1675945863862438e+00 4.7304454119349666e+00 0 0 0
362 2 1.5982507856990903e+01 9.6468422603886825e+00 5.0757689726882287e+00 0 0 0
363 2 1.6842828238178917e+01 8.2408608649852777e+00 5.0336388414140769e+00 0 0 0
382 1 1.6848034292683778e+01 9.2828084337208487e+00 2.0149163979839564e+00 0 0 0
383 2 1.6832209355871029e+01 8.3775529982082233e+00 1.6727013449067389e+00 0 0 0
384 2 1.6783444635210451e+01 9.2000628339166308e+00 2.9917591459180852e+00 0 0 0
82 1 1.3273658212198849e+00 1.0473489019154634e+01 1.0029197604880020e+00 0 0 0
52 1 1.5632363146677246e+00 1.2905433865793579e+01 4.7421056820553131e+00 0 0 0
53 2 1.6024747314360750e+00 1.2645519434684086e+01 3.8179576925902436e+00 0 0 0
54 2 7.1313376583780164e-01 1.3316402089572804e+01 4.8990367075909944e+00 0 0 0
56 2 3.0750642580096321e+00 1.3736859319486763e+01 5.3533657186943726e+00 0 0 0
67 1 1.3792505293059960e+00 1.2976133516094187e+01 1.8013077045344370e+00 0 0 0
68 2 2.1571866394809329e+00 1.3519295154656231e+01 1.4299832071412064e+00 0 0 0
69 2 5.9393861601038145e-01 1.3415623374931094e+01 1.4352412253182032e+00 0 0 0
80 2 1.2170880157340518e+00 1.1193527761837743e+01 5.2388384025170165e+00 0 0 0
84 2 1.6206326842075425e+00 1.1394562122125139e+01 1.2937977348882885e+00 0 0 0
85 1 3.5995774969870502e+00 1.4472761995128851e+01 4.8672564938674084e-01 0 0 0
86 2 4.3578605947091535e+00 1.4040944675763949e+01 9.0955066702894782e-01 0 0 0
58 1 6.0554507494347352e+00 1.3209551208271744e+01 4.6687671133210307e+00 0 0 0
59 2 5.1711804255244296e+00 1.3522154364479608e+01 5.1399451631218298e+00 0 0 0
60 2 6.1929834248420033e+00 1.2323271293376269e+01 5.0064373258823691e+00 0 0 0
61 1 5.6980696694032762e+00 1.0625229035553273e+01 1.3065682659751434e+00 0 0 0
64 1 6.0983728570281981e+00 1.0500580582126620e+01 5.2204157841497780e+00 0 0 0
70 1 5.5773207004375571e+00 1.3230321878653356e+01 1.9462222233631330e+00 0 0 0
71 2 5.4960213111773024e+00 1.2329713333416858e+01 1.7465322420810003e+00 0 0 0
72 2 5.7550396623212583e+00 1.3299351471443568e+01 2.9171765350017154e+00 0 0 0
88 1 7.8656946533924543e+00 1.4526386815484139e+01 1.0646595154201914e+00 0 0 0
89 2 7.1411130347378977e+00 1.4162772354988169e+01 1.6307066016856115e+00 0 0 0
90 2 8.0912793958660281e+00 1.5427730098973674e+01 1.5058788274062274e+00 0 0 0
91 1 8.1649946100399067e+00 1.4459960811533257e+01 5.4053341289084811e+00 0 0 0
92 2 7.3192259993391726e+00 1.3909537731893417e+01 5.2349064957862499e+00 0 0 0
93 2 8.8665903348880626e+00 1.3857596091867016e+01 5.0982451417292012e+00 0 0 0
63 2 5.7334329975482161e+00 1.0604866494072123e+01 3.0617297787215675e-01 0 0 1
370 1 9.9723812718620657e+00 1.0506253104109712e+01 8.7171083593193233e-01 0 0 0
371 2 1.0143690597193729e+01 1.1416490546626585e+01 1.2497121355778231e+00 0 0 0
369 2 1.0081580346467215e+01 1.1389221258088813e+01 4.9811910052172781e+00 0 0 0
367 1 1.0042226631755398e+01 1.0528887694630020e+01 5.4375853965149554e+00 0 0 0
357 2 1.0885593913597154e+01 1.3497496566931282e+01 1.3345091812502872e+00 0 0 0
356 2 9.3255909314627257e+00 1.3677615652191056e+01 1.3925428919102349e+00 0 0 0
355 1 1.0132810211693821e+01 1.3055292955605202e+01 1.6935878514298379e+00 0 0 0
342 2 1.1364940334006537e+01 1.3521283917526098e+01 4.8277600988599163e+00 0 0 0
341 2 1.0511088903714095e+01 1.3121094089388970e+01 3.4866649905879510e+00 0 0 0
340 1 1.0561350111973132e+01 1.3036653865081320e+01 4.4501147181095453e+00 0 0 0
344 2 1.2368598038912287e+01 1.5348114570476461e+01 5.3478978728770512e+00 0 0 0
373 1 1.2415368473264904e+01 1.4208910152606588e+01 8.2484487062429090e-01 0 0 0
374 2 1.3204667690697271e+01 1.3703657083795264e+01 1.1103077442340450e+00 0 0 0
346 1 1.4800643116142956e+01 1.3308125288220431e+01 4.9058966938602921e+00 0 0 0
347 2 1.4062657276831798e+01 1.3695598864523006e+01 5.3104499703963448e+00 0 0 0
348 2 1.4878371467175219e+01 1.2336657774146463e+01 5.1750795138632615e+00 0 0 0
349 1 1.4936395351265203e+01 1.0642472739529515e+01 6.4301905822740280e-01 0 0 0
358 1 1.4758987642712327e+01 1.2904765349874676e+01 1.7749292537418981e+00 0 0 0
359 2 1.4758155062222713e+01 1.2940644475743481e+01 2.7456377919722668e+00 0 0 0
360 2 1.4893885641444870e+01 1.2005230362636384e+01 1.3524836242993670e+00 0 0 0
376 1 1.6974762534715360e+01 1.4317646848630698e+01 9.3002113890826488e-01 0 0 0
377 2 1.6900508999419614e+01 1.5266885130428582e+01 1.2724656280075148e+00 0 0 0
378 2 1.6147950032981001e+01 1.3894493795655810e+01 1.2235274486203997e+00 0 0 0
380 2 1.6255315401911119e+01 1.3910623690123105e+01 5.3506526027040637e+00 0 0 0
33 2 1.1669446525535005e+00 2.9981456367598751e+00 6.5031203666882602e+00 0 0 0
97 1 3.3197921829807182e+00 1.3512606101373619e+00 9.3035649097601798e+00 0 0 0
98 2 3.3663866824073434e+00 1.2052494078134208e+00 1.0325696634212340e+01 0 0 0
99 2 3.3966551279650408e+00 4.1922740939816638e-01 8.9370752868331955e+00 0 0 0
117 2 1.1731247632600743e+00 4.5105281109369457e+00 8.8530517411519210e+00 0 0 0
130 1 1.2462552543955521e+00 2.6567721994361615e+00 8.3613517516430615e+00 0 0 0
131 2 2.1514928493532004e+00 2.2454291456531115e+00 8.6235245661134066e+00 0 0 0
132 2 7.5192955867822697e-01 1.8995899494199870e+00 8.5968586496007422e+00 0 0 0
16 1 5.6499967067937682e+00 2.8044699826234551e+00 5.6161119942161353e+00 0 0 0
18 2 5.4649625980155641e+00 2.7755595296707849e+00 6.5971718968588764e+00 0 0 0
109 1 5.5094517318508140e+00 2.7489842024482565e+00 8.3613750702254084e+00 0 0 0
110 2 6.3398879698536739e+00 2.2975323649765969e+00 8.6268816067598237e+00 0 0 0
111 2 4.8021733485332323e+00 2.3085464182313906e+00 8.8702576847834536e+00 0 0 0
120 2 5.5476771459328349e+00 4.4033322900197076e+00 8.9358816670793626e+00 0 0 0
142 1 7.5793845806766225e+00 1.2878279027687018e+00 8.9829050010483105e+00 0 0 0
143 2 8.4887062390794821e+00 1.6972250598477874e+00 8.8428787373428150e+00 0 0 0
144 2 7.6718921283290165e+00 4.1093311362480917e-01 8.5303220241724382e+00 0 0 0
122 2 7.5392817155908718e+00 1.2932713399439755e+00 1.0639642994178832e+01 0 0 0
321 2 1.0207036651716331e+01 3.6000773468116245e+00 5.6626199535075701e+00 0 0 0
320 2 9.3601075533166753e+00 2.2839488872708333e+00 5.7930716232463428e+00 0 0 0
319 1 1.0231607233736728e+01 2.7161478443371760e+00 6.0875374358764844e+00 0 0 0
420 2 1.0347102375780638e+01 3.2514096311739964e+00 9.0988754608335558e+00 0 0 0
419 2 1.0343406744519752e+01 2.5855555194899473e+00 7.7499008045045148e+00 0 0 0
418 1 1.0416743484578982e+01 2.3326617739876205e+00 8.7061036065854172e+00 0 0 0
385 1 1.2623107490632245e+01 1.3841603118125199e+00 9.4451714589728155e+00 0 0 0
386 2 1.1745749687074232e+01 1.5863713014515870e+00 9.0376563010125075e+00 0 0 0
387 2 1.3343928281597837e+01 1.9996465750611963e+00 9.0684102786514114e+00 0 0 0
403 1 1.0040780104027583e+01 4.9055014411854039e+00 9.1736619597010893e+00 0 0 0
389 2 1.0171064373294247e+01 5.0936861570789738e+00 1.0859086416103974e+01 0 0 0
397 1 1.4593075787346994e+01 2.5312478164904304e+00 8.2143064222452971e+00 0 0 0
398 2 1.4536669544682141e+01 3.4148895702614581e+00 8.6755351264318108e+00 0 0 0
399 2 1.4725218544490208e+01 2.6108446896011781e+00 7.2619126329754611e+00 0 0 0
430 1 1.6878360258861434e+01 1.2034915919526492e+00 9.2199068901823988e+00 0 0 0
431 2 1.6990197709905878e+01 1.5746091563124283e+00 1.0113401592953021e+01 0 0 0
432 2 1.6144687050219538e+01 1.6659369626529532e+00 8.7805354875051727e+00 0 0 0
406 1 1.4570120870043155e+01 5.0386848163941407e+00 9.3535040057767755e+00 0 0 0
408 2 1.4535369574558128e+01 5.0712254814822737e+00 1.0302117100979574e+01 0 0 0
79 1 1.2713056184585643e+00 1.0270197317241987e+01 5.5529084107087243e+00 0 0 0
174 2 3.8483690742462118e+00 9.1431068599661920e+00 1.0879487965401371e+01 0 0 0
115 1 1.1870261517572898e+00 5.4007208879902828e+00 9.2165951533798705e+00 0 0 0
116 2 1.9578812581045053e+00 5.8167458778903276e+00 8.7997097219635805e+00 0 0 0
133 1 3.3252799526074734e+00 6.7676049731927366e+00 7.9376420522990347e+00 0 0 0
134 2 3.9589374758415192e+00 6.1707446116197984e+00 8.3534974145898566e+00 0 0 0
135 2 3.4293095879300295e+00 6.6921085409812200e+00 6.9437575190211236e+00 0 0 0
145 1 3.7952309779713995e+00 9.1150143841759554e+00 9.0859844829033616e+00 0 0 0
146 2 2.9373888099260568e+00 9.5356534385776950e+00 8.8413122587709054e+00 0 0 0
147 2 3.6410941180474170e+00 8.1940350109149094e+00 8.7768593830994437e+00 0 0 0
178 1 1.3076527638992941e+00 1.0221652029736001e+01 8.3327358426768452e+00 0 0 0
180 2 1.2212732519618410e+00 1.0253284509715982e+01 7.3488155205020576e+00 0 0 0
101 2 1.2810174811175603e+00 5.4761709980903559e+00 1.0928846072525914e+01 0 0 0
43 1 8.1386696777401522e+00 6.4269224918797407e+00 5.5978128401703975e+00 0 0 0
171 2 7.9970857367772661e+00 8.8988064030845582e+00 1.0740232255652904e+01 0 0 0
118 1 5.4067986088262119e+00 5.3277924186433756e+00 9.1347122881866802e+00 0 0 0
119 2 5.3706175056717624e+00 5.4953187376910950e+00 1.0076370675309157e+01 0 0 0
136 1 7.9463532223189768e+00 6.4278609593390561e+00 8.3129699912547270e+00 0 0 0
137 2 8.0859415035692841e+00 6.4957337857644815e+00 7.2978862669943050e+00 0 0 0
138 2 6.9906695617811438e+00 6.1368030282716646e+00 8.4242914196377292e+00 0 0 0
159 2 4.8894271789048922e+00 9.9611687245359501e+00 8.4073883415276356e+00 0 0 0
192 2 7.9741624091636423e+00 8.0501395641169307e+00 8.7471052759848806e+00 0 0 0
191 2 7.1914093233264191e+00 9.4369681922696103e+00 8.7530219184922604e+00 0 0 0
190 1 8.0610410282179554e+00 8.9822442690300477e+00 9.0643032297402346e+00 0 0 0
295 1 1.2562061600796968e+01 6.3159992239553846e+00 5.6964439903819688e+00 0 0 0
467 2 9.6013882048686892e+00 1.0167680834905374e+01 8.4290196700085129e+00 0 0 0
405 2 9.2766480713919357e+00 5.4825302380851344e+00 8.9291176093220876e+00 0 0 0
404 2 1.0800292128543356e+01 5.3611814469254986e+00 8.7387701407048741e+00 0 0 0
296 2 1.2377824986978620e+01 6.3967965356748637e+00 6.6761521180233521e+00 0 0 0
421 1 1.2301024921355655e+01 6.5249542074720726e+00 8.2900830040173137e+00 0 0 0
422 2 1.2367297950894059e+01 7.3588401883804320e+00 8.7668829410810751e+00 0 0 0
423 2 1.3029321105506547e+01 5.9652849933130909e+00 8.5945691811513125e+00 0 0 0
433 1 1.2399235516932517e+01 9.0551078497717601e+00 9.2793921321060893e+00 0 0 0
434 2 1.2390295628499084e+01 8.9829902307274203e+00 1.0308335046381313e+01 0 0 0
435 2 1.1578055347872587e+01 9.5324644809679189e+00 9.0755930154258557e+00 0 0 0
333 2 1.6713340405056123e+01 6.5080324337755533e+00 6.3989269559233595e+00 0 0 0
480 2 1.7504747854765093e+01 9.4684180932597659e+00 8.8469468638551287e+00 0 0 0
479 2 1.6729027052006323e+01 9.2503915469376867e+00 1.0167900175216957e+01 0 0 0
478 1 1.6699528996885668e+01 9.0850214532773830e+00 9.1766273794509079e+00 0 0 0
407 2 1.5332582212082986e+01 5.5606581708902665e+00 9.0465065629392285e+00 0 0 0
424 1 1.6875890500871783e+01 6.3730048688569489e+00 8.0423103045290105e+00 0 0 0
425 2 1.6822372966262485e+01 7.3291883809159257e+00 8.2819498673109315e+00 0 0 0
426 2 1.7740663231674226e+01 6.0536479812971775e+00 8.5263632684684012e+00 0 0 0
447 2 1.4017787311465769e+01 9.9344367671153968e+00 8.4979387818279424e+00 0 0 0
446 2 1.5559858478214213e+01 1.0110124767356785e+01 8.4829638893824306e+00 0 0 0
55 1 3.7995720521781298e+00 1.4203330015138688e+01 5.8029378233322975e+00 0 0 0
57 2 3.6598734553535328e+00 1.5167728602488687e+01 5.5676270800459919e+00 0 0 0
149 2 1.2343232544428555e+00 1.2994905005515253e+01 1.0890784866911769e+01 0 0 0
163 1 1.1486871025625889e+00 1.2983051227194700e+01 9.3898264466922008e+00 0 0 0
164 2 4.0168561923288415e-01 1.3519366452210845e+01 8.9726303166926744e+00 0 0 0
165 2 1.9400842149461055e+00 1.3429211764831621e+01 9.0670795058187252e+00 0 0 0
183 2 4.2806124057729633e+00 1.3864228744169456e+01 8.6331993875824704e+00 0 0 0
182 2 3.3720578876767124e+00 1.4179827208441971e+01 7.3870121698204203e+00 0 0 0
179 2 1.5577674553715166e+00 1.1141711061239647e+01 8.5094620525727898e+00 0 0 0
181 1 3.3530590439338455e+00 1.4220076080283784e+01 8.3735163021504473e+00 0 0 0
157 1 5.6106437255825758e+00 1.0407216180687843e+01 7.9460866070916651e+00 0 0 0
65 2 5.8860809871541706e+00 1.0438922687082318e+01 6.2270468922566504e+00 0 0 0
158 2 5.6994801645708097e+00 1.1323510885488824e+01 8.2792044462417014e+00 0 0 0
166 1 5.7338521083700034e+00 1.3088675177646023e+01 9.0522636156066163e+00 0 0 0
167 2 5.7958712631197526e+00 1.3013316678805426e+01 1.0012369073805115e+01 0 0 0
168 2 6.4904994781854475e+00 1.3623356910617677e+01 8.7117481163296162e+00 0 0 0
186 2 8.8150453159965423e+00 1.3854823628102210e+01 8.3931471487341778e+00 0 0 0
185 2 8.2065108963369067e+00 1.4241891498188727e+01 6.9507440447443800e+00 0 0 0
184 1 7.9795570640026856e+00 1.4258344231948973e+01 8.0122997684928663e+00 0 0 0
343 1 1.2473589074453884e+01 1.4428489984636839e+01 5.6803532098985272e+00 0 0 0
468 2 1.0288240406852635e+01 1.0819742088264114e+01 7.1641134893642660e+00 0 0 0
466 1 1.0333786521313629e+01 1.0713125074895855e+01 8.1553099000457543e+00 0 0 0
453 2 9.8369545899661066e+00 1.2988698533569760e+01 1.0314115040910048e+01 0 0 0
452 2 1.0037489157630766e+01 1.2109600382026713e+01 9.1175484478023510e+00 0 0 0
451 1 9.8548259724142167e+00 1.3047611614835715e+01 9.3644373492132029e+00 0 0 0
345 2 1.2398923131147811e+01 1.4490105201997483e+01 6.6771550995687647e+00 0 0 0
471 2 1.2322206945952431e+01 1.5080654481077081e+01 9.0447629099547910e+00 0 0 0
470 2 1.1538095163487913e+01 1.3566366975708670e+01 8.9581376519615059e+00 0 0 0
469 1 1.2367045847654648e+01 1.4124480833029663e+01 8.7453293312070706e+00 0 0 0
352 1 1.4520310971696935e+01 1.0572274437856958e+01 5.5512219429084286e+00 0 0 0
379 1 1.7168930733778602e+01 1.4147392788128981e+01 5.6616959812156855e+00 0 0 0
445 1 1.4745019977902222e+01 1.0511270051035329e+01 8.1256817120466067e+00 0 0 0
455 2 1.4605225220603710e+01 1.2133821937077576e+01 9.0481132210266768e+00 0 0 0
454 1 1.4701080729456219e+01 1.3107128146945190e+01 9.2954831105812286e+00 0 0 0
444 2 1.4594518008699923e+01 1.2967182934328877e+01 1.1005796381065108e+01 0 0 0
354 2 1.4476786490464914e+01 1.0543677423600162e+01 6.5753279205634545e+00 0 0 0
381 2 1.6996809870446512e+01 1.4252080269078734e+01 6.6455166474431744e+00 0 0 0
474 2 1.6134198800365496e+01 1.3730961637786889e+01 8.8144991748811776e+00 0 0 0
473 2 1.6879115221567780e+01 1.5106462065861830e+01 8.8513725381399340e+00 0 0 0
472 1 1.6924555741300864e+01 1.4201177220497021e+01 8.4645566269682551e+00 0 0 0
456 2 1.3851819261181220e+01 1.3504003381681255e+01 8.8533913452124633e+00 0 0 0
124 1 3.2598193828630531e+00 1.2407282218058235e+00 1.2046351042349324e+01 0 0 0
125 2 4.0081343612166194e+00 1.8835462212944651e+00 1.2304824653971089e+01 0 0 0
126 2 2.3549448263734392e+00 1.7106694469744408e+00 1.2317505497268865e+01 0 0 0
127 1 1.2636931545809906e+00 2.8991303978264926e+00 1.2768500500371006e+01 0 0 0
128 2 1.2629680690621223e+00 2.9414955865848742e+00 1.3718087883379633e+01 0 0 0
129 2 1.2632067336300328e+00 3.7416914522166933e+00 1.2218775346421005e+01 0 0 0
228 2 1.9864811799654802e-01 2.4513964947431917e+00 1.5894717175336607e+01 0 0 0
227 2 1.7790188041748392e+00 2.0444245483119214e+00 1.5754301773208265e+01 0 0 0
226 1 1.1027509114673117e+00 2.7737030082889249e+00 1.5623341013697829e+01 0 0 0
213 2 1.1011001727644683e+00 4.3762144286858149e+00 1.5859504976523086e+01 0 0 0
195 2 3.8818496556763802e+00 1.7139476291803193e+00 1.5745913000335566e+01 0 0 0
194 2 3.1677627193367903e+00 2.2165005437681629e-01 1.6035590655419028e+01 0 0 0
193 1 3.1730127553659955e+00 1.2009602268546422e+00 1.6294899649733789e+01 0 0 0
211 1 1.1159880469197416e+00 5.2097048895133522e+00 1.6376803825139813e+01 0 0 0
108 2 5.4561218437724914e+00 4.5602132487894318e+00 1.2156047670021030e+01 0 0 0
112 1 5.3761719552010350e+00 2.8538899140406984e+00 1.2656543411731420e+01 0 0 0
113 2 6.2429830822398893e+00 2.4636859187780629e+00 1.2460192361651680e+01 0 0 0
114 2 5.2577826721811283e+00 2.7584917210953397e+00 1.3654226227308177e+01 0 0 0
121 1 7.6439041000696228e+00 1.5326613705426280e+00 1.1630909970888478e+01 0 0 0
123 2 8.3977422134281365e+00 2.1349145692736564e+00 1.1674644874163091e+01 0 0 0
239 2 8.2207234830194462e+00 2.1565762430870601e+00 1.6079682543318711e+01 0 0 0
238 1 7.3601258251783532e+00 1.8671712400707416e+00 1.6428038602721088e+01 0 0 0
207 2 4.9222354557499415e+00 3.5925417549234977e+00 1.5975482697538135e+01 0 0 0
206 2 5.8939111996207290e+00 2.3627852800333975e+00 1.5943864234988400e+01 0 0 0
205 1 5.0590999796711564e+00 2.7441287624330406e+00 1.5505404607356590e+01 0 0 0
483 2 1.1588455931082848e+01 2.0313209529552294e+00 1.5989999636622027e+01 0 0 0
482 2 1.2373561718492846e+01 7.6058025165830156e-01 1.5942933547126774e+01 0 0 0
481 1 1.2334059164482978e+01 1.5631175687365346e+00 1.6477381430138653e+01 0 0 0
412 1 1.2547447073452664e+01 1.4566382540703333e+00 1.2079789571607865e+01 0 0 0
413 2 1.2591585683745015e+01 4.8614464191346185e-01 1.2255430633380364e+01 0 0 0
516 2 1.0130421665679647e+01 2.6380251784240811e+00 1.4492683004425848e+01 0 0 0
515 2 9.9856017040926695e+00 3.2798462447616439e+00 1.5978883028762439e+01 0 0 0
514 1 1.0017337190938793e+01 2.3993702269512287e+00 1.5521881834744695e+01 0 0 0
417 2 1.1066025073160036e+01 2.3529164571774790e+00 1.2657597271913604e+01 0 0 0
416 2 1.0244098735032271e+01 3.6514734870846310e+00 1.2596435704443859e+01 0 0 0
415 1 1.0295351027077347e+01 2.8152294499324779e+00 1.3048091958053892e+01 0 0 0
495 2 1.3355536336442178e+01 2.5640964369926538e+00 1.6031809738820129e+01 0 0 0
388 1 1.0118882520643860e+01 5.1487841651105031e+00 1.1884056385739733e+01 0 0 0
414 2 1.2607764196659231e+01 1.4479128570292665e+00 1.1108074525777743e+01 0 0 0
528 2 1.5497848118685901e+01 2.0288516578403657e+00 1.6129448099269357e+01 0 0 0
526 1 1.6219080829043193e+01 1.3969072327911896e+00 1.6370779443756298e+01 0 0 0
503 2 1.4077608820266057e+01 4.5489876378531076e+00 1.6097121583359478e+01 0 0 0
494 2 1.4226449928005739e+01 3.0326965526323004e+00 1.4776580978429353e+01 0 0 0
493 1 1.4063101368855429e+01 3.1585277263837503e+00 1.5762217733726295e+01 0 0 0
395 2 1.4788511125383211e+01 4.4260217238787689e+00 1.2527661249024167e+01 0 0 0
400 1 1.4874024151334915e+01 2.9613638286603043e+00 1.3135204314632762e+01 0 0 0
401 2 1.4148332454812529e+01 2.5475679972525982e+00 1.2584839248208786e+01 0 0 0
402 2 1.5703207756653798e+01 2.5762561623855320e+00 1.2698941371640217e+01 0 0 0
409 1 1.6844269244841449e+01 1.6646384854083425e+00 1.1903434231568982e+01 0 0 0
410 2 1.6846794789328577e+01 6.8058286134094681e-01 1.2037261725296862e+01 0 0 0
411 2 1.7703330159489489e+01 2.0150251248527216e+00 1.2282988005799183e+01 0 0 0
100 1 1.3668763747584922e+00 5.2862699529787189e+00 1.1873996540526553e+01 0 0 0
102 2 2.1433783168236960e+00 5.6887339931942451e+00 1.2263748400660551e+01 0 0 0
103 1 3.4356850122128813e+00 6.8332766289343665e+00 1.2925000001939056e+01 0 0 0
104 2 4.2182072005901601e+00 6.3751268554579861e+00 1.2505627319855799e+01 0 0 0
105 2 3.3809840354933502e+00 6.6003414768485804e+00 1.3897991504321711e+01 0 0 0
243 2 2.2030325947482519e+00 9.6985359777318383e+00 1.6140417682709902e+01 0 0 0
242 2 2.9869186992969130e+00 8.3266079576665035e+00 1.6210112249963402e+01 0 0 0
241 1 3.0562248455420744e+00 9.2827097486527776e+00 1.6440898690563529e+01 0 0 0
231 2 2.3698773718451602e+00 6.0289405792430530e+00 1.5956575015906846e+01 0 0 0
230 2 3.8816692808672992e+00 5.9981811567338683e+00 1.6020688649152483e+01 0 0 0
229 1 3.1670004158518266e+00 6.4995280638997466e+00 1.5530312502999692e+01 0 0 0
212 2 2.9410106598781738e-01 5.7416671912962096e+00 1.6148399401478766e+01 0 0 0
172 1 3.6613091684473069e+00 9.4131663479079855e+00 1.1806677257966445e+01 0 0 0
173 2 3.6765747851438464e+00 8.5439313138532320e+00 1.2314086662102744e+01 0 0 0
176 2 1.9627552634081120e+00 1.0214742745456293e+01 1.2309237125076631e+01 0 0 0
106 1 5.4398790532696051e+00 5.4729256494595102e+00 1.1783698061597519e+01 0 0 0
107 2 6.2735022571808452e+00 5.8920984605145792e+00 1.2133044944535017e+01 0 0 0
139 1 7.8285460218355434e+00 6.4234340562463919e+00 1.2780712973838297e+01 0 0 0
140 2 8.6549606916267070e+00 5.8109510508524922e+00 1.2713693377770396e+01 0 0 0
141 2 8.0469446088093868e+00 7.3549785538436332e+00 1.2582470019432176e+01 0 0 0
161 2 4.9494395725278437e+00 9.9215673518111718e+00 1.2390434058651342e+01 0 0 0
162 2 6.5980576004585023e+00 9.9263892501256699e+00 1.2456227326334735e+01 0 0 0
288 2 6.9034297893998664e+00 9.6113869153282003e+00 1.6211725077456919e+01 0 0 0
286 1 7.8393721432947103e+00 9.3612167866162288e+00 1.6457755770320130e+01 0 0 0
255 2 4.6312190904305099e+00 1.0026985134230596e+01 1.5744112517839488e+01 0 0 0
234 2 7.8528480195440320e+00 7.5778982071790546e+00 1.5634890233980681e+01 0 0 0
233 2 7.8638652031630496e+00 6.5481926711823260e+00 1.4416008863868486e+01 0 0 0
232 1 7.8653363059310086e+00 6.6556218404791938e+00 1.5395845012461368e+01 0 0 0
215 2 5.9872236860984458e+00 5.9063824664979974e+00 1.6171782389783989e+01 0 0 0
169 1 8.0458174527574009e+00 8.9474396614506198e+00 1.1796072140408208e+01 0 0 0