LAMMPS data file via write_data, version 15 Apr 2020, timestep = 6532000

576 atoms
2 atom types

1.6850664507418145e-01 1.7693542154927989e+01 xlo xhi
1.4581035158932742e-01 1.5310384948407098e+01 ylo yhi
2.0702558534473425e-01 2.1738109614651663e+01 zlo zhi

Masses

1 15.9994
2 1.00794

Atoms # atomic

36 2 9.2428708917813596e-01 3.1303749339140845e+00 3.2335695213686089e+00 1 1 0
34 1 7.2189484812976346e-01 2.6057737896401920e+00 4.0262934995916773e+00 1 1 0
110 2 3.0710653700995487e+00 8.3929792364704325e-01 1.3521125289911777e+00 -1 -1 0
307 1 4.0148087602648843e+00 1.1315679462055921e+00 1.4814171392496172e+00 0 -1 -1
473 2 4.2901336993828867e+00 1.6229691643060908e+00 7.6037890668622676e-01 -1 0 0
363 2 3.8303050832749781e+00 4.1718314723228671e+00 4.2238725191574078e+00 0 -3 0
545 2 4.4161784638246004e+00 1.9297607344007153e+00 3.0375401674102549e+00 1 0 0
320 2 7.4330433267189044e-01 5.7631792904157653e-01 1.4799193263611554e+00 0 0 0
544 1 4.6540598066669805e+00 2.4267702273737455e+00 3.8581147366544539e+00 1 0 0
128 2 8.6436074979997475e+00 3.3426174619018250e+00 2.6789602019490015e+00 -1 0 -2
539 2 7.9517449001341829e+00 1.6540835199608319e+00 9.7335160874543103e-01 -1 -1 1
91 1 7.7948847599662665e+00 2.0418300872939055e+00 1.8990876562728456e+00 0 -1 0
159 2 7.9186799570024000e+00 2.4677166726290740e+00 4.4823349954369407e+00 1 1 0
158 2 8.0545720568427903e+00 1.3636783801153547e+00 2.5978822481493666e+00 0 0 0
243 2 5.5808833539752731e+00 2.2609628265917237e+00 4.0614786761112391e+00 1 0 0
351 2 1.2106890060466775e+01 3.8797792786942034e+00 2.1174645333327393e+00 0 -1 0
497 2 1.1859123588785302e+01 4.4817539853052031e+00 3.6010289794340418e+00 0 1 1
496 1 1.1588216976162649e+01 3.8618179792798202e+00 2.9297498598568770e+00 0 1 1
127 1 9.0051000263939898e+00 3.6924801987887261e+00 3.4573076515582546e+00 -1 0 -2
291 2 9.9798031411599126e+00 3.7597464765452213e+00 3.2541336724177956e+00 0 1 -2
541 1 1.3361988315973278e+01 3.2097894021864182e+00 6.5715381225988856e-01 0 2 0
222 2 1.6340991269864691e+01 1.8325082119932754e+00 5.4930433810180745e-01 -1 2 2
442 1 1.4545548083638403e+01 2.5285828704012494e+00 3.0777596240589156e+00 2 -1 0
444 2 1.3917516194399141e+01 3.1982677906688135e+00 2.9135423245724295e+00 2 -1 0
220 1 1.6365631274297023e+01 1.1636813140097886e+00 1.2972899327031060e+00 -1 2 2
113 2 1.5793243120435847e+01 1.6063305567587711e+00 1.9220013860179317e+00 -1 2 1
452 2 1.4546016705139898e+01 2.5407847727854249e+00 4.0448634312341500e+00 0 1 1
316 1 1.5810384961504992e+01 5.0793819795591544e+00 1.2401910805315244e+00 2 1 0
462 2 1.3658394273886234e+01 7.0225058248212691e-01 3.3831405276188748e+00 -1 1 0
542 2 1.3700766869089431e+01 2.3517618847195543e+00 1.1030450702773715e+00 0 2 0
401 2 1.5806234233896314e+01 4.1026083488278147e+00 1.3015762544273750e+00 0 2 0
123 2 4.3870847628855811e+00 5.4769081922309164e+00 3.7915507855975585e+00 -1 0 -1
536 2 2.9067509611850845e-01 5.6733607112342108e+00 2.9871642435288246e+00 2 -1 0
535 1 1.2294565314778336e+00 5.7540269629074583e+00 2.7656604735175949e+00 2 -1 0
411 2 1.2807716741689519e+00 5.6721570328493280e+00 4.9957665369809046e-01 -1 2 1
537 2 1.6048754160269119e+00 6.5388500985185507e+00 3.2529530840866046e+00 2 -1 0
290 2 2.0244424912384305e+00 8.8582640415402132e+00 3.5501909988328095e+00 2 1 0
289 1 1.6562820044299804e+00 8.2700808300599480e+00 4.3588116602002689e+00 2 1 0
117 2 3.0474668276973524e+00 7.0069057687364014e+00 1.8978975599019736e+00 0 -2 1
115 1 3.9078627081665123e+00 6.8636218378613263e+00 2.2989834882662552e+00 0 -2 1
143 2 2.5481961341618771e+00 8.7735229866734734e+00 6.4680807751973368e-01 1 -2 1
144 2 1.0810915475283727e+00 8.6404318633633004e+00 3.3727637313585701e-01 1 -2 1
354 2 4.1379651091111231e+00 7.7629912734558895e+00 2.6746896009233954e+00 0 -1 1
326 2 3.8135024058476721e+00 1.0149976310003547e+01 2.4177706714794409e+00 0 1 1
325 1 3.9069468538625198e+00 9.4234461539687597e+00 3.1013180180008577e+00 0 1 1
327 2 4.4536354448271984e+00 9.8623400934237004e+00 3.8425930161994821e+00 0 1 2
142 1 1.7066361302617095e+00 8.6679924557034447e+00 1.0787740568584980e+00 1 -2 1
408 2 8.3878429041634313e+00 5.5461075650488727e+00 3.3337601949609770e+00 -1 1 0
417 2 8.7971650850210619e+00 5.9496857112380734e+00 1.3105242896664246e+00 1 -1 0
371 2 4.8372049426304846e+00 6.0454847868027910e+00 6.6815959697893823e-01 -1 0 0
273 2 7.0965944813433603e+00 9.0936906350903897e+00 1.6650703858721032e+00 -1 2 2
271 1 7.8449749160148299e+00 8.8361735525229292e+00 2.2751150371906377e+00 -1 2 2
272 2 7.8431336221904866e+00 7.8951819953296338e+00 2.6184110693533214e+00 -1 2 2
395 2 8.0501953836679458e+00 9.5835376313811302e+00 3.8948812491357852e+00 2 0 1
237 2 8.8078079019258535e+00 1.0072073132461696e+01 2.0751940057178020e+00 0 2 1
406 1 7.9000463513369148e+00 6.3587023970633876e+00 3.2008644586702717e+00 -1 1 0
407 2 7.4866474958381302e+00 6.3622157875757903e+00 4.0445871042738180e+00 -1 1 0
472 1 5.7805754591572089e+00 9.0631618047648299e+00 4.7548880751741968e-01 1 0 -1
415 1 9.2456541562992207e+00 5.7428033954716993e+00 4.4911713875074788e-01 1 -1 0
287 2 1.0034151553882825e+01 6.2618820311861123e+00 3.9949298640981640e-01 0 0 0
276 2 1.1615789375044599e+01 8.0360441250203714e+00 5.7970539469632887e-01 0 -1 1
298 1 1.2535783574561814e+01 9.6963396148503112e+00 2.4174268180621286e+00 0 1 0
111 2 1.2630530402539257e+01 8.7617780811468897e+00 2.7509999319693819e+00 0 0 0
30 2 1.1653662007789864e+01 1.0029765832059319e+01 2.5968487816742605e+00 -1 -1 0
514 1 1.0724080048267412e+01 8.2177645897334699e+00 4.3423362359604276e+00 0 0 1
391 1 1.3819077146584855e+01 7.2252575298499000e+00 2.4607856541484971e+00 0 -1 1
278 2 1.3983053812920041e+01 1.0005063885303642e+01 1.5495126061244116e+00 -1 0 1
393 2 1.3571035389050232e+01 6.9859376916506033e+00 1.5139693865153570e+00 0 -1 1
281 2 1.6395269531998384e+01 7.3052954914432133e+00 6.6279658089273630e-01 1 0 0
270 2 1.5296550454856812e+01 8.3903509911428582e+00 2.9267530066852232e+00 1 0 0
211 1 1.4824996952958655e+01 1.0253581886000545e+01 1.0534867801211192e+00 -1 -2 0
37 1 1.6054639823546722e+01 8.8276979503202142e+00 3.4148665322948792e+00 1 0 0
392 2 1.3931010121248091e+01 6.4931347568117319e+00 3.0614621801133834e+00 0 -1 1
280 1 1.4752001155454135e+01 5.7711382693114048e+00 4.4973501627120651e+00 -1 0 0
38 2 1.5650510883603253e+01 9.0356075766435602e+00 4.2608213808248507e+00 1 0 0
12 2 1.5656331530567506e+01 8.6920027022439488e+00 5.0990423952173014e-01 1 -1 0
317 2 1.4858945749685866e+01 5.2699856518581969e+00 8.8068584350361545e-01 2 1 0
522 2 4.0174297663190845e+00 1.4629474124635152e+01 2.4333204625827753e+00 1 1 2
319 1 1.3815760528505108e+00 1.4977835095002986e+01 1.3441308952796762e+00 0 -1 0
321 2 1.5734017706766232e+00 1.4674287121872803e+01 2.2661988781947913e+00 0 -1 0
520 1 4.1239261526658924e+00 1.3751841083176018e+01 2.8206674309827382e+00 1 1 2
521 2 3.5610632925418710e+00 1.3079876805255838e+01 2.3954527697128456e+00 1 1 2
340 1 3.2888335171312766e-01 1.1150528476326000e+01 1.0138403543078054e+00 2 0 1
296 2 2.3631293162465941e+00 1.1216258529814629e+01 1.1429233304087383e+00 0 1 0
295 1 3.2860254553878683e+00 1.1548816959844514e+01 1.2630619607119489e+00 0 1 0
343 1 1.2588047652247747e+00 1.4062247762732328e+01 3.7967589273607487e+00 0 -3 1
180 2 1.1021612797013600e+00 1.4809299269117684e+01 4.3637601064840892e+00 1 -2 0
435 2 3.9553951624149142e+00 1.3772780903738461e+01 4.3087300668724984e+00 1 1 0
482 2 4.5191942922299361e-01 1.3581991237214520e+01 3.9335849042372262e+00 2 -3 1
297 2 3.5066944331891432e+00 1.1852160865088235e+01 3.1341455609705632e-01 0 1 0
114 2 6.3872859080535171e+00 1.1469298484820362e+01 4.4508357692492782e+00 -1 1 0
509 2 8.4901875823526325e+00 1.1645929137732660e+01 1.9207264852268802e+00 1 0 0
549 2 5.7376657848961248e+00 1.3422964386521462e+01 2.3786337788957401e+00 1 0 2
372 2 7.1654918333231787e+00 1.3572214713105829e+01 1.7349914621589113e+00 0 0 0
547 1 6.6998025763821021e+00 1.3238108564258036e+01 2.5061151799283676e+00 1 0 2
456 2 8.1961953723048921e+00 1.3851258845741233e+01 3.8544154493079539e+00 0 0 0
526 1 8.6039306975590915e+00 1.4051783166639240e+01 2.7278493060011749e-01 1 1 0
52 1 1.1218912638490151e+01 1.3802781976379878e+01 8.1096917864992957e-01 -1 -2 0
54 2 1.1682827732562533e+01 1.2968173113907762e+01 5.2747987096756432e-01 -1 -2 0
239 2 1.0004187829610380e+01 1.1554593120032202e+01 3.1223861797752992e+00 0 -2 1
235 1 9.1630562623468279e+00 1.0967827219064896e+01 1.7812019751743557e+00 0 2 1
388 1 1.0399533277778049e+01 1.1650747725270103e+01 4.0192164697407300e+00 -1 0 0
389 2 1.1352677706448349e+01 1.2010252246699658e+01 3.9518134976393613e+00 -1 0 0
527 2 9.5402169705995430e+00 1.4041795974652956e+01 4.4954448964458138e-01 1 1 0
455 2 9.6453924756325957e+00 1.3237282310449977e+01 4.0309046190299638e+00 0 0 0
454 1 9.1390875591453966e+00 1.4046791815116819e+01 4.1928875851066429e+00 0 0 0
53 2 1.1527773419625738e+01 1.3975780008267845e+01 1.6586101350758364e+00 -1 -2 0
7 1 1.2897427429549101e+01 1.2402441484478947e+01 4.0503481897706157e+00 2 1 0
8 2 1.2886482156004618e+01 1.3296989267941113e+01 3.6262888490759084e+00 2 1 0
149 2 1.0157119800939176e+01 1.0816112124557375e+01 5.5355902608726704e-01 -1 0 0
81 2 1.5390926391900550e+01 1.0531204192585964e+01 1.7890294153845805e+00 -1 -1 0
341 2 1.7511355093102715e+01 1.0268330099081867e+01 8.1259896043514968e-01 1 0 1
342 2 1.7317634938380873e+01 1.1792622447676978e+01 5.4104531606545048e-01 1 0 1
187 1 1.3683824764042363e+01 1.4866958331083778e+01 3.3742620589050518e+00 0 1 0
525 2 1.6028160070186868e+01 1.2616615465312961e+01 2.3336418273792527e+00 0 -1 0
523 1 1.5804840050828277e+01 1.2614831501296306e+01 3.2561322214377650e+00 0 -1 0
431 2 1.4599120176122813e+01 1.4619349272741179e+01 3.0590930958920519e+00 1 -2 0
209 2 1.4174924155002399e+01 1.1601341890675018e+01 2.1486730434581364e-01 -1 -1 2
524 2 1.6366362017708077e+01 1.1914646387184103e+01 3.6567851689462092e+00 0 -1 0
147 2 1.3491356894415611e+01 1.1970294610692729e+01 3.4647600520771973e+00 0 0 0
57 2 1.6958250274834150e+01 1.4089564446306060e+01 5.3033169179129724e-01 -1 2 0
390 2 1.5766275035689752e+00 2.4948035528150325e+00 4.5189632659596386e+00 1 1 0
121 1 4.0449270645018691e+00 5.0425833425123123e+00 4.5800978016311724e+00 -1 0 -1
437 2 3.1013271109748124e+00 1.0690564203857380e+00 5.4735317610602969e+00 0 1 0
436 1 2.4426926323830171e+00 3.3344140095722169e-01 5.6333387594303996e+00 0 1 0
565 1 1.6465434406657946e+00 4.9995633777164930e+00 6.4200592371362672e+00 1 -1 -1
566 2 1.9014901474504076e+00 4.2802479288442674e+00 7.0250654187226811e+00 1 -1 -1
15 2 3.3666792936812939e-01 1.1443184561579101e+00 8.2458858844156868e+00 4 1 1
576 2 4.3473462289936959e+00 4.9377082899976346e+00 6.3567492734545636e+00 2 2 1
13 1 6.7120464183056616e-01 2.9442166113858037e-01 7.7852811393224268e+00 4 1 0
548 2 1.3947143835744464e+00 5.8283485551565617e-01 7.1475399511571860e+00 2 0 1
244 1 4.5094305470994120e+00 9.6357606196656964e-01 8.2316287458266260e+00 1 -1 2
538 1 2.2338611596047326e+00 2.6212976675536983e+00 8.0022605998377436e+00 0 0 1
191 2 2.9441905654378351e+00 1.9803127002735608e+00 7.8638549636425994e+00 -1 0 0
567 2 1.5145269862150217e+00 4.6800065667518647e+00 5.5316913038934210e+00 1 -1 -1
540 2 2.5318297682697279e+00 3.1089712366064255e+00 8.7837051132653237e+00 0 0 1
148 1 7.4136146474676439e+00 1.9347935725240137e+00 5.0929551879456971e+00 0 2 0
575 2 5.0817763909167768e+00 3.8168449145525973e+00 7.0740723819718232e+00 2 2 1
574 1 4.7523682667187606e+00 4.7091728917942808e+00 7.2140948942746981e+00 2 2 1
150 2 7.5752496979428079e+00 2.4495044344019568e+00 5.8925561495468299e+00 0 2 0
9 2 8.9061248431795796e+00 1.0798171313395386e+00 6.5602165377551147e+00 0 1 1
50 2 8.6872342892808589e+00 3.4103652135467613e+00 7.8745647529128062e+00 -2 4 1
27 2 7.2612690348073823e+00 2.9594990326373032e+00 8.4520623602936880e+00 -1 2 1
25 1 7.7962830485619188e+00 3.1016719364493732e+00 7.6552959770160616e+00 -1 2 1
246 2 5.0934688859296893e+00 6.6630750686393880e-01 7.4733667256002727e+00 1 -1 2
86 2 6.8954748203618479e+00 6.6449150344130870e-01 5.8143673771807549e+00 -1 1 0
384 2 5.9626841746688077e+00 4.7789223324044912e+00 8.8057172471295466e+00 0 0 0
322 1 1.0921537843044097e+01 4.1041799057461841e+00 7.3414712159788742e+00 -2 1 0
323 2 1.1383150566217713e+01 3.2548854004855792e+00 7.4147214252673121e+00 -2 1 1
324 2 1.1255976347806646e+01 4.6916711071645256e+00 7.9761427736498467e+00 -2 1 0
154 1 9.2876197915622125e+00 2.1962841140735867e-01 6.5832092934362247e+00 0 -1 0
71 2 1.1019357530203408e+01 1.0807855981957750e+00 7.1784804052266491e+00 -1 1 -2
72 2 1.2500435889046086e+01 1.0590464165837643e+00 7.1293934181555949e+00 -1 1 -2
70 1 1.1773320287442075e+01 1.4847294025394164e+00 7.6431394244764199e+00 -1 1 -2
60 2 1.6278552389200112e+01 2.8690619749920807e+00 5.0346335685072452e+00 -1 5 1
219 2 1.5870478817080715e+01 2.6831994082226451e+00 6.5136858106984343e+00 0 -1 2
58 1 1.5587158035835611e+01 2.4991158530774711e+00 5.6161963216861377e+00 -1 5 1
212 2 1.7161958772298334e+01 3.2823545360093682e+00 8.2285480253149270e+00 -1 -1 0
533 2 1.5851652960428558e+01 5.7672479141994282e-01 5.8766376400405891e+00 1 2 1
511 1 1.6720241064979806e+01 2.4370796372193237e+00 8.5208539916206227e+00 -1 0 0
265 1 1.6442287285464268e+01 5.1307880730583335e+00 6.7306649243732046e+00 1 -1 0
221 2 6.9418964385846427e-01 8.3781044146789849e+00 4.6606296216235341e+00 0 0 2
530 2 3.0304491073209445e+00 7.9321618888941368e+00 5.7134570218920651e+00 0 1 0
531 2 2.9144262565149024e+00 6.6986161543138678e+00 6.3559595164232059e+00 0 1 0
529 1 3.6089533712763937e+00 7.4271916497810224e+00 6.2695839350024585e+00 0 1 0
394 1 8.2660465993657422e+00 1.0107673861872939e+01 4.6601151455240268e+00 2 0 1
126 2 5.4099835995461625e+00 6.8458261776353426e+00 5.8408244622361458e+00 1 -2 0
125 2 6.6821180461068357e+00 6.0335834441557106e+00 6.3250255342505222e+00 1 -2 0
124 1 6.4727757718008645e+00 6.7661750035702406e+00 5.7184314531941851e+00 1 -2 0
466 1 8.0065431772288029e+00 8.6611251355313037e+00 6.8167067466072666e+00 -2 -2 0
468 2 7.2344265032494208e+00 8.1974612362128347e+00 6.5041054636683873e+00 -2 -2 0
467 2 8.2402717227774609e+00 9.3091753218375075e+00 6.0823634131710245e+00 -2 -2 0
570 2 8.0604723681740680e+00 9.7843750057222465e+00 8.4477720320565854e+00 0 -1 -1
355 1 1.1816945002296041e+01 5.9121222920537138e+00 5.1303040763014458e+00 1 -1 0
396 2 1.1389263602700620e+01 5.4352957893573688e+00 5.9058633683623922e+00 2 -1 1
357 2 1.1297969811897916e+01 6.7369392634218430e+00 5.1543577321840761e+00 1 -1 0
512 2 1.2302882723656714e+01 8.4060124122672661e+00 7.8225224811940182e+00 0 1 0
516 2 9.8956388859294950e+00 8.2884308630388226e+00 4.7342076054599449e+00 0 0 1
515 2 1.1236061279189149e+01 8.8654374028039360e+00 4.9209039559173240e+00 0 0 1
83 2 9.1554074624899346e+00 7.6863040972296703e+00 8.0625572875287439e+00 0 0 0
82 1 9.8113613317283264e+00 7.3800174683733779e+00 8.7949642717568643e+00 0 0 0
14 2 1.0737353634907173e+01 7.4779906878754874e+00 8.4539178820597556e+00 3 0 0
160 1 1.2166488772535999e+01 9.9139486742335023e+00 5.9605041648509740e+00 -3 0 -1
373 1 1.2343902696374689e+01 7.5028280732564765e+00 8.2022112860102148e+00 0 1 0
353 2 1.7668837626540778e+01 1.0239721632953474e+01 5.2396345565093547e+00 0 0 1
35 2 1.7300110147564617e+01 5.4773790532370432e+00 6.6611672166471934e+00 1 0 -1
267 2 1.3910544547991773e+01 5.5972627520913276e+00 4.9137136807137871e+00 -1 0 1
282 2 1.5392326374828235e+01 5.2776103604992306e+00 5.0344613270264924e+00 -1 0 0
487 1 1.4975641258611171e+01 9.3433233057814000e+00 5.9280809293949650e+00 0 1 0
488 2 1.4073853443368394e+01 9.5207771704825586e+00 6.1752887475333615e+00 0 1 0
489 2 1.5419655971256505e+01 9.6173289089058862e+00 6.7053358027948065e+00 0 1 0
266 2 1.5929352715900475e+01 5.9562744243641887e+00 6.9038506567486797e+00 1 -1 0
433 1 4.0668653081871682e+00 1.3532607428013000e+01 5.3414837514323148e+00 1 1 0
122 2 2.9423662975436362e+00 1.4660431134146213e+01 5.5926260057845028e+00 -2 0 0
453 2 9.3386462518499413e-01 1.1592607942476032e+01 5.5462914983345248e+00 1 0 2
129 2 3.4442946191225809e+00 1.2261430220889956e+01 6.2091101289376152e+00 1 0 -1
506 2 3.2127671286765831e+00 1.0842890263383261e+01 6.7494895410235021e+00 2 -1 1
559 1 2.8695756893686668e+00 1.1724606830184811e+01 6.7854441652259192e+00 1 0 0
112 1 5.6652961044604675e+00 1.1067531414015670e+01 4.9830854609334745e+00 -1 1 0
434 2 4.8863983201454229e+00 1.4024463606263350e+01 5.5962871292648053e+00 1 1 0
251 2 5.0184083874415961e+00 1.1759413097348212e+01 4.7598577448339681e+00 0 0 0
174 2 6.8463296006421865e+00 1.2113272460416622e+01 6.3799689731678173e+00 0 -1 1
288 2 6.3259469116719496e+00 1.2848102492513563e+01 7.7359568413893900e+00 1 0 0
286 1 7.0656025060536152e+00 1.2773377456062843e+01 7.0270051591681577e+00 1 0 0
85 1 6.3306358987521909e+00 1.5096143677375675e+01 6.1122352297154388e+00 -1 0 0
87 2 6.8824679938721349e+00 1.4500335687700305e+01 6.6457213029745708e+00 -1 0 1
446 2 8.6375259855837108e+00 1.4914705962236383e+01 8.4345247567321771e+00 0 0 1
486 2 8.6599804217688412e+00 1.2377006641501753e+01 7.2334512491520870e+00 -1 0 -1
449 2 9.1650117811168847e+00 1.0405374655899550e+01 4.5417573855145248e+00 0 0 1
426 2 1.3301165858200486e+01 1.4726897153923259e+01 5.6701031131025097e+00 2 0 1
240 2 1.1923293367537251e+01 1.0279403466076699e+01 6.8841873808124303e+00 0 -2 0
178 1 9.6172369346811024e+00 1.2315360681835040e+01 7.6161644366533503e+00 0 0 -2
179 2 1.0194658240375341e+01 1.2830916828107311e+01 7.0990891335534707e+00 0 0 -2
481 1 1.1174445230686970e+01 1.0316815415054391e+01 8.1963740108086149e+00 1 0 -1
90 2 1.0495931519140223e+01 1.1042208047210750e+01 8.1378662356306037e+00 1 3 -1
161 2 1.2302066776820284e+01 1.0775603408289022e+01 5.5333158793877804e+00 -3 0 -1
189 2 9.0360364569080822e+00 1.4895002728818756e+01 5.7328572230097059e+00 0 -1 1
424 1 1.3499536773344458e+01 1.4548544850246579e+01 6.6446905658707429e+00 2 0 1
425 2 1.4486151442827701e+01 1.4584327506903717e+01 6.5686364842869791e+00 2 0 1
183 2 1.6766372994329735e+01 1.5047888408724692e+01 7.0067901078581869e+00 -1 0 1
399 2 1.4837882228259140e+01 1.1792064136958823e+01 7.7839771690808552e+00 0 1 -1
438 2 1.3665989197913010e+01 1.2598552935311641e+01 7.3858586591982602e+00 -1 1 -1
397 1 1.4028976313475047e+01 1.2020176191087701e+01 8.1109820410594224e+00 0 1 -1
451 1 1.7655949780423533e+01 1.1190897248503560e+01 5.2101628653349552e+00 0 0 2
181 1 1.5999027788560284e+01 1.4952318488410940e+01 6.3761426630197873e+00 -1 0 1
443 2 1.6814364001536596e+01 1.1593804674473221e+01 6.5824894608470208e+00 1 -2 0
28 1 1.6523716429489564e+01 1.1348613319784542e+01 7.4868584026770435e+00 -2 -1 0
29 2 1.6709194498492742e+01 1.2161443226484257e+01 7.9454700194448815e+00 -2 -1 0
356 2 1.7625857336681108e+01 1.4026345691164229e+01 8.6169900028132602e+00 0 -1 0
532 1 2.2850171230889060e+00 4.7625554079999759e+00 1.0029108949497642e+01 1 -1 0
177 2 2.4283130502232262e+00 4.7045350308668432e+00 1.0986978064818237e+01 0 1 0
461 2 3.5579970945659434e+00 5.9787584017477813e-01 1.0860605863053259e+01 -2 1 1
476 2 2.3950348866314703e+00 4.4054546508031878e-01 9.7933095758371156e+00 -2 2 1
80 2 4.4403133797822409e+00 4.1601349825525853e+00 1.3084636657238770e+01 -1 1 0
350 2 1.6633545767767610e+00 4.8133367082750302e+00 1.3001216616007682e+01 0 -1 0
349 1 2.5812944023257378e+00 5.0162034300759792e+00 1.2764536523590516e+01 0 -1 0
413 2 7.3068961890187092e+00 3.8666040735728013e-01 9.9956861096746898e+00 2 -1 1
385 1 4.7581834283884401e+00 1.8837862394251716e+00 1.1227506960603620e+01 -1 -2 1
387 2 5.6134362304522289e+00 1.3563123870318681e+00 1.1169356022350724e+01 -1 -2 1
386 2 4.7996147854479743e+00 2.6003234844091967e+00 1.0546287717020164e+01 -1 -2 1
120 2 8.8496052435631771e+00 1.4807599567127565e+00 1.2886204616776251e+01 1 -1 0
383 2 7.2531866494653423e+00 4.4669988437252623e+00 9.7254474937040527e+00 0 0 0
382 1 6.2967389814577208e+00 4.3643547268362335e+00 9.5484746291518121e+00 0 0 0
359 2 8.5749753204825776e+00 4.9444779292341927e+00 1.1729188203484981e+01 2 2 0
245 2 5.1251354442899784e+00 9.2537794461433642e-01 8.9747128994568186e+00 1 -1 2
375 2 5.3334882552718019e+00 2.9926277257415790e+00 1.2976125718697050e+01 0 1 1
39 2 7.2038467482388739e+00 4.3733298919060921e+00 1.1985586572229744e+01 0 2 1
358 1 8.0149329939900333e+00 4.7202404641705149e+00 1.2498323576216995e+01 2 2 0
261 2 1.1745931038848221e+01 1.0450188118894042e+00 9.2336423434879826e+00 -1 0 0
252 2 1.3030436800505830e+01 4.9167109877362103e+00 1.2051082221553688e+01 -1 1 0
558 2 1.1755060538940967e+01 4.3606270249590660e+00 1.1415786205955749e+01 -1 1 0
250 1 1.2091894945070509e+01 5.0408181369415619e+00 1.2039427602178305e+01 -1 1 0
197 2 9.8738118737182496e+00 4.4623423703343486e+00 1.0005733397126896e+01 -1 -1 2
216 2 1.0241758789221835e+01 2.6686670203335860e+00 1.1538503565960589e+01 -1 0 1
214 1 1.0832823847709779e+01 3.1663705710995296e+00 1.0941125046221845e+01 -1 0 1
196 1 9.0798503468929486e+00 4.8202689945878809e+00 9.6757825679331795e+00 -1 -1 2
215 2 1.1386660397615410e+01 2.4600591640508185e+00 1.0643225178747524e+01 -1 0 1
508 1 1.1542056159676548e+01 7.0231335580183951e-01 1.0153944773789469e+01 -2 1 0
164 2 1.2893194808289154e+01 7.0795685872669734e-01 1.1283776359511233e+01 -1 1 -1
510 2 1.0623265471286802e+01 3.8546182964306885e-01 1.0072960380111224e+01 -2 1 0
561 2 1.4471134042425568e+01 2.4577525766237502e+00 1.1374874887181289e+01 0 0 -1
352 1 1.5186258357811289e+01 2.9705400967293878e+00 1.1025446423602865e+01 0 1 -1
546 2 1.5957578296928991e+01 2.6836913479071081e+00 1.1551342017898849e+01 0 1 -1
513 2 1.6154972410141390e+01 2.7080871416059447e+00 9.3190617403350355e+00 -1 0 0
163 1 1.3751076798896213e+01 6.4245351193656552e-01 1.1833279307044940e+01 -1 1 -1
48 2 1.7404178329383090e+01 4.6504848430025190e+00 1.2367683224440118e+01 -1 -1 -1
195 2 1.5148998576907710e+01 4.8986640133699426e+00 1.1767439585628072e+01 0 0 0
534 2 2.5425429837328468e+00 5.6273032668731107e+00 9.7665069017007173e+00 1 -1 0
171 2 5.6395318118135185e-01 5.2355137604924984e+00 1.0443545674510188e+01 -2 1 0
495 2 1.7611346018945895e-01 8.6230169891852242e+00 1.1158306666209953e+01 2 -1 -1
6 2 3.3088952611880766e+00 9.2258397998153896e+00 1.3011889848412165e+01 -1 -1 0
410 2 4.6202088679453288e+00 9.1682580693823184e+00 8.8347860650186707e+00 0 1 0
550 1 5.3244159842952206e+00 9.2430752485815990e+00 9.4917917325667407e+00 0 0 0
201 2 5.6204921412190760e+00 7.6631979449127714e+00 1.0398259564896273e+01 -2 2 0
475 1 7.7441102340662544e+00 1.0129324095652963e+01 9.3540177843924504e+00 -2 0 -1
551 2 6.0713267402566551e+00 9.8497504974634715e+00 9.3360507880543455e+00 0 0 0
477 2 8.4714005235619787e+00 1.0049341680920014e+01 9.9127877194909448e+00 -2 0 -1
200 2 5.9412190355243748e+00 6.1372370314339806e+00 1.0638473766454272e+01 -2 2 0
199 1 6.0836187917151365e+00 7.0170977195609270e+00 1.1077386787014474e+01 -2 2 0
404 2 4.6599189869197684e+00 9.8977165058305605e+00 1.1110942334778501e+01 -1 -2 0
249 2 5.1805328738788514e+00 7.0724293316557683e+00 1.2707052605304165e+01 1 2 1
338 2 1.0845959445631818e+01 9.6662880914221194e+00 1.0647239608010139e+01 0 0 -1
374 2 1.2873955467834888e+01 7.6176535917213508e+00 8.9902636641675038e+00 0 1 0
19 1 9.7300816288655234e+00 7.1881966921913660e+00 1.3093034266718561e+01 -1 0 -1
20 2 9.3397130825708103e+00 7.7657378876122047e+00 1.2386317769787905e+01 -1 0 -1
440 2 9.8825873827719235e+00 8.7821218445381888e+00 1.0054116319106496e+01 0 1 0
198 2 9.4586334679872923e+00 5.6883237956143322e+00 9.3322247514056187e+00 -1 -1 2
464 2 1.3066214866621712e+01 7.8847249820682457e+00 1.1504360219810797e+01 0 1 -1
55 1 9.9088512890172158e+00 9.5295381561396848e+00 1.0688306383080798e+01 -2 2 -1
569 2 1.1437105733444893e+01 7.3814422636421719e+00 1.2983833344555265e+01 0 0 -1
192 2 1.5554413204402087e+01 1.0069838705843278e+01 9.2058883370457831e+00 -1 1 0
169 1 1.7179846322257003e+01 5.2697172580278941e+00 1.0797069972551348e+01 -3 1 0
170 2 1.6900114060380911e+01 6.1995350676016159e+00 1.0774706936365032e+01 -3 1 0
193 1 1.4652770039208384e+01 5.5949584679002218e+00 1.2397205508203385e+01 0 0 0
194 2 1.4535603286769019e+01 6.3306320499004451e+00 1.1763833403962796e+01 0 0 0
463 1 1.3640495995092428e+01 7.7356586385721320e+00 1.0755921313861595e+01 0 1 -1
314 2 1.4182825248380778e+01 8.6380501494283308e+00 1.0741592265896058e+01 1 1 -1
493 1 1.6970208158151927e+01 7.9873745210756075e+00 1.1179092834702180e+01 1 -1 -1
96 2 1.6455656374433886e+01 8.2378798386160383e+00 1.2018688770079084e+01 1 -3 -1
337 1 1.5456993088970808e+01 9.1500360766609372e+00 9.3528925372246121e+00 2 1 -1
339 2 1.6194520366453634e+01 8.8668905203436932e+00 9.9559831625845288e+00 2 1 -1
16 1 1.3894321143857907e+01 9.8570296058374911e+00 1.2639106666471259e+01 1 1 -1
460 1 2.8079563336257771e+00 1.5135974255780670e+01 1.0525056775742698e+01 -2 0 1
405 2 4.0412980922783692e+00 1.1168420255924461e+01 1.1763089971045602e+01 -1 -2 0
403 1 4.3762122876291123e+00 1.0310808289378935e+01 1.1944524268716767e+01 -1 -2 0
429 2 6.9452498402802587e-01 1.1605298127284648e+01 1.0969937147322817e+01 0 -2 1
507 2 2.4057475134225492e+00 1.1957231232854067e+01 9.9619022164506248e+00 1 -2 1
427 1 6.0200231379498759e-01 1.0874711149036267e+01 1.0378393302672464e+01 0 -2 1
11 2 2.9870284743448190e+00 1.3227347460930332e+01 1.0520897439969426e+01 1 -2 0
505 1 3.2028430247997703e+00 1.2303489776394303e+01 1.0440870914278509e+01 1 -2 1
228 2 1.5434049539718944e+00 1.4582810284573370e+01 1.1789302132157768e+01 -1 0 0
227 2 4.0430293728632405e-01 1.3869586568710135e+01 1.2624715980780193e+01 -1 0 0
226 1 6.1092792311376565e-01 1.4342544096472679e+01 1.1787094281702705e+01 -1 0 0
445 1 8.7261986208431299e+00 1.5249776066992276e+01 9.3454598245772100e+00 0 0 1
447 2 8.8369990956621756e+00 1.4536943800043902e+01 9.9205402868378858e+00 0 0 1
412 1 6.5206550714836027e+00 1.5273951083787788e+01 1.0505907506258966e+01 2 -2 1
414 2 6.0198825917937784e+00 1.4581601639909961e+01 1.0073693314690759e+01 2 -2 1
66 2 6.3553686126318292e+00 1.2096496411057926e+01 9.7764766804216023e+00 1 0 0
64 1 5.7907288783449520e+00 1.2809934908722347e+01 9.3756726815843869e+00 1 0 0
65 2 4.8826412860106316e+00 1.2642739247103293e+01 9.5832668426582561e+00 1 0 0
554 2 6.5367811056731426e+00 1.3690157060746953e+01 1.2233773392248503e+01 0 0 1
31 1 6.6977138731616401e+00 1.2821837298786509e+01 1.2635937018500275e+01 -2 -1 0
32 2 7.5133660200811825e+00 1.2736700766125757e+01 1.2152935975919442e+01 -2 -1 0
258 2 1.1765691521913414e+01 1.0614624198286643e+01 8.9663307047722611e+00 0 1 -1
381 2 9.3472050138520490e+00 1.2290672228226592e+01 1.0094909110642542e+01 1 -3 -1
379 1 9.0964787948548302e+00 1.2896389754855784e+01 1.0777335333109567e+01 1 -3 -1
92 2 9.8774733496666141e+00 1.3068070329181511e+01 1.1387403428333343e+01 0 -2 -1
135 2 1.2016720451788272e+01 1.2901855061781081e+01 1.1641033249380039e+01 -1 0 -1
133 1 1.1208242562477924e+01 1.3252734285317493e+01 1.2093687990668435e+01 -1 0 -1
134 2 1.1207258073126363e+01 1.2890186186285643e+01 1.3032647692665817e+01 -1 0 -1
302 2 1.3256062488672368e+01 1.1506076490619023e+01 9.8558086404390259e+00 -1 -1 -1
301 1 1.2573079604621981e+01 1.1138871078095804e+01 1.0391670581131393e+01 -1 -1 -1
236 2 1.2878016549065096e+01 1.0686994557047798e+01 1.1164346339476051e+01 -3 3 1
428 2 1.7524514220656254e+01 1.1213999495727331e+01 9.7095381075124880e+00 -1 -2 1
213 2 1.7627564320570215e+01 1.3978450014439776e+01 1.0211367721473808e+01 -1 -1 0
157 1 1.7357943278840089e+01 1.3486482420033001e+01 9.3653229150793216e+00 0 0 0
441 2 1.4192744376953540e+01 1.3460025161728391e+01 9.5276881673654756e+00 1 1 0
165 2 1.4308752079875864e+01 1.5059397745883919e+01 1.1483174044752754e+01 -1 0 -1
439 1 1.4511500481297986e+01 1.3670451726824213e+01 1.0434559466256559e+01 1 1 0
89 2 1.5506343569519307e+01 1.3599238829511963e+01 1.0299296939492038e+01 1 2 0
17 2 1.4049261468625776e+01 1.0754787622110408e+01 1.2966463109723867e+01 1 1 -1
45 2 1.4513577963777031e+01 1.2932506754182564e+01 1.2628614251854199e+01 0 -1 0
41 2 3.8230153657963459e+00 2.7148346004950734e+00 1.5005610170915817e+01 1 0 0
42 2 3.5112946732088033e+00 1.4448694959026307e+00 1.5829645119642368e+01 1 0 0
40 1 3.6227916164731297e+00 2.4126343258388303e+00 1.5913598537777979e+01 1 0 0
167 2 1.1932178909277920e+00 5.1170758378194270e+00 1.7348303779368496e+01 1 -1 -1
79 1 5.2861580964604542e+00 3.8159602821915621e+00 1.3362008018852411e+01 -1 1 0
234 2 5.0961177156795063e+00 4.4572045129407512e+00 1.7248830637382081e+01 1 -1 -1
59 2 6.5430876554725295e+00 1.0212651935883406e+00 1.4755837253588183e+01 0 3 0
470 2 8.0222844060288416e+00 2.8219681961158085e+00 1.6846733025532089e+01 0 3 0
172 1 7.0252037682907176e+00 2.7052302123946603e+00 1.6945425599011454e+01 0 3 1
279 2 6.8722808471663521e+00 3.6409966754556002e+00 1.7130453969279777e+01 -1 4 1
304 1 7.7677649448343651e+00 5.1806941954281900e+00 1.5132575076985709e+01 3 0 -1
306 2 6.8501620740320979e+00 5.0717825507319914e+00 1.5370502875471839e+01 3 0 -1
344 2 8.7362135989990382e+00 5.1327945546411051e+00 1.6265278878118526e+01 -1 -3 1
305 2 7.8370247537973476e+00 4.9466306161847928e+00 1.4162758176772870e+01 3 0 -1
118 1 9.7389521833901167e+00 1.7415526197332292e+00 1.3150846748829444e+01 1 -1 0
294 2 9.5871661111033468e+00 2.1320585848203830e+00 1.4076334570540221e+01 1 0 0
203 2 1.0292503158047985e+01 3.5248288797135232e+00 1.6062070956488480e+01 0 0 0
572 2 1.1711753679435455e+01 4.9175309955412798e+00 1.4240479145358741e+01 0 1 0
204 2 1.0290723844083722e+01 2.0562015491882990e+00 1.6687057337623163e+01 0 0 0
202 1 1.0007629613375231e+01 2.5976697440011942e+00 1.5859804088675430e+01 0 0 0
571 1 1.1975743587984967e+01 4.7208374562241380e+00 1.5173950987761497e+01 0 1 0