LAMMPS data file via write_data, version 15 Apr 2020, timestep = 2000000

288 atoms
2 atom types

-6.9839215464100768e-02 1.3242084715462358e+01 xlo xhi
-8.3225934690435821e-02 1.5780315834688027e+01 ylo yhi
-7.7726869148007971e-02 1.4737648169145587e+01 zlo zhi

Masses

1 15.9994
2 1.00794

Atoms # atomic

269 2 3.6980913524743086e+00 3.3131630791196742e+00 1.9582574092374014e+00 -1 0 2
268 1 2.7689246433294641e+00 3.1438100899402235e+00 1.6455277081861126e+00 -1 0 2
47 2 2.4780169208630771e+00 1.5604867182870945e+00 2.1948086430153131e+00 0 1 1
138 2 1.4566759127393856e+00 3.9283435604429524e+00 2.6427944369534417e+00 1 -1 1
270 2 2.6050338390944283e+00 3.5368023905875821e+00 7.9225900667515015e-01 -1 0 2
46 1 2.5641813117315961e+00 7.5795331542112621e-01 2.7756476926471159e+00 0 1 1
101 2 2.5491286090539642e+00 7.5010072959361396e-01 4.4196579519915664e+00 1 0 0
136 1 7.3916834054936742e-01 4.4840628493719041e+00 2.9193178913825157e+00 1 -1 1
48 2 3.3228782731831186e+00 2.7052700411834307e-01 2.3786365336421831e+00 0 1 1
182 2 8.1934621073244618e-01 4.6294572449046392e+00 4.6791709242439650e+00 -2 0 0
260 2 8.2333010204257007e-01 -2.9815745691307280e-02 2.2029259431610790e+00 0 1 0
67 1 4.8936462392861415e+00 4.3938866014393740e+00 2.6961828107595154e+00 0 1 0
58 1 7.0814788751539011e+00 3.2793154359309766e+00 1.7800988175877683e+00 0 0 0
59 2 7.1585955303515423e+00 2.3689231240626598e+00 2.3035620256618481e+00 0 0 0
69 2 5.7827493187555854e+00 4.0892731230375583e+00 2.4618542964023424e+00 0 1 0
60 2 7.8918241387423995e+00 3.7408924776678814e+00 2.0600342652780546e+00 0 0 0
226 1 7.2348044030841958e+00 8.1681298790603840e-01 2.4985695472508720e+00 0 0 0
227 2 7.4359928592968068e+00 5.7873054498410414e-01 3.4354213137697154e+00 0 0 0
146 2 4.8010225163062303e+00 4.4671852297599735e+00 4.5347438214401725e+00 0 -1 0
228 2 7.9779944957026538e+00 5.6556315130259915e-01 1.9379735765969808e+00 0 0 0
23 2 7.3528887557915397e+00 3.2407650567928989e+00 -2.2559506966741756e-02 0 1 1
175 1 9.3884530313807737e+00 4.7947749899987704e+00 2.7352462399867248e+00 0 0 1
190 1 1.1485819917119557e+01 3.1312374931546376e+00 1.9464252799821065e+00 -1 1 0
191 2 1.0694718606474765e+01 3.6109437764504868e+00 2.2090859980795741e+00 -1 1 0
192 2 1.2346491429634213e+01 3.5900056064375909e+00 2.2044074548571162e+00 -1 1 0
174 2 1.1421568143513500e+01 1.6509714325498972e+00 2.5809127172351385e+00 0 0 2
172 1 1.1325292625649887e+01 7.1453376780346534e-01 2.7393306251974918e+00 0 0 2
173 2 1.1416766047929830e+01 5.6709597692678260e-01 3.7364055520082746e+00 0 0 2
177 2 9.5024664060883062e+00 4.6360756779760539e+00 3.7166966830875707e+00 0 0 1
155 2 1.1454684334737735e+01 2.7130070946967542e+00 1.4972812063432514e-01 -1 1 1
137 2 6.8513081428943012e-01 5.2601019047626973e+00 2.2862212918291207e+00 1 -1 1
113 2 2.7083085671061204e+00 9.2616002710359560e+00 1.9881485051619432e+00 0 -1 1
112 1 2.6610507301415338e+00 8.3985102916214558e+00 2.4883593491362128e+00 0 -1 1
114 2 1.9005083311565694e+00 7.9163843302958599e+00 2.1397476651882279e+00 0 -1 1
258 2 2.3836897739612080e+00 8.6388770563159536e+00 4.5147144707508753e+00 0 -1 0
49 1 6.3993886366217811e-01 7.0509888997698038e+00 1.6110012391171495e+00 1 0 0
50 2 7.4118282175215822e-01 7.0695243635451055e+00 6.0763968681694680e-01 1 0 0
168 2 4.1228659609532228e+00 7.6121196937666245e+00 2.1744281389669053e+00 1 0 1
68 2 4.6867042625212365e+00 5.2240732823953788e+00 2.2493348206478307e+00 0 1 0
166 1 4.7723268424018102e+00 6.9057566453119774e+00 1.9481946152631431e+00 1 0 1
167 2 5.6602382359156245e+00 7.2192569916164864e+00 2.2164451684603321e+00 1 0 1
196 1 7.2593584664220669e+00 8.4700454147659805e+00 2.2874017427705011e+00 1 0 1
198 2 7.3016363829107025e+00 8.6743998326226173e+00 3.2500853090508484e+00 1 0 1
197 2 7.0248169310800455e+00 9.3321587866985869e+00 1.8266116853683574e+00 1 0 1
62 2 4.8340829261985769e+00 7.3635426512686220e+00 -5.2868518981600943e-02 1 0 0
54 2 8.6892784903604436e+00 7.9628934943708831e+00 1.8609612520619068e+00 1 0 0
51 2 1.3087362499906448e+01 7.4477691794020124e+00 1.7722773299021828e+00 0 0 0
176 2 9.4766288292491758e+00 5.6989820453983437e+00 2.3992905629265864e+00 0 0 1
53 2 9.7481198542841412e+00 7.1972085162210400e+00 8.7930265609676850e-01 1 0 0
52 1 9.5730535156209200e+00 7.5086398928042293e+00 1.7898051893856590e+00 1 0 0
134 2 1.0968436990145300e+01 8.2900985269715566e+00 2.5405180208563047e+00 0 0 0
133 1 1.1803697866801176e+01 8.6040460943280905e+00 2.8916424603293214e+00 0 0 0
135 2 1.1914588543261139e+01 9.4961528718196391e+00 2.6135432409396535e+00 0 0 0
243 2 1.1960116414129441e+01 8.5677356744463555e+00 4.5168764331112987e+00 1 0 0
279 2 2.7522410000936621e+00 1.1156881724144213e+01 7.3305902696595249e-01 1 0 0
277 1 2.7729418433636432e+00 1.1168605594511984e+01 1.6849223596148200e+00 1 0 0
278 2 1.8925540124300604e+00 1.1579015013026700e+01 1.9320299752460386e+00 1 0 0
283 1 6.3068804079725460e-01 1.2884968314638629e+01 2.4798684255465422e+00 0 -1 1
259 1 2.0814168791648202e-01 1.5412832568226847e+01 1.6533738391528994e+00 0 0 0
285 2 6.9344781076563289e-01 1.3834137796374074e+01 2.1075450968154876e+00 0 -1 1
27 2 5.3309483361340271e-01 1.2606426939632604e+01 4.2911549373533076e+00 1 -1 0
12 2 4.2940444766315160e+00 1.2133239268578089e+01 2.0573393555449608e+00 0 0 0
200 2 5.7616725036403125e+00 1.5705266009458828e+01 2.0803753051728742e+00 -1 0 0
199 1 5.0349821574682476e+00 1.5514665770603132e+01 1.5347498369886192e+00 -1 0 0
201 2 4.8894985379601428e+00 1.4547112461760099e+01 1.6805987383134673e+00 -1 0 0
11 2 5.0261287278890583e+00 1.2519327110287760e+01 3.2920051100018952e+00 0 0 0
10 1 5.1603947157716634e+00 1.2581103902072309e+01 2.2571403486690751e+00 0 0 0
4 1 7.1584382583769504e+00 1.0967852881318683e+01 1.2474763690421511e+00 -1 -1 2
5 2 6.4635794445441883e+00 1.1632814384157330e+01 1.5368340917416159e+00 -1 -1 2
6 2 8.1005421614874535e+00 1.1204972913892927e+01 1.5102904690217758e+00 -1 -1 2
261 2 1.2629794776389826e+01 1.5632979216916333e+01 2.1408709716393735e+00 -1 0 0
284 2 1.3119771798714133e+01 1.2610801636090066e+01 2.1074492220598464e+00 -1 -1 1
144 2 9.8640380093389233e+00 1.5751241322222233e+01 1.8965622682789294e+00 -1 0 1
95 2 9.1931985200615678e+00 1.3329022680333161e+01 2.1105990835476467e+00 0 0 1
94 1 9.3606366487660395e+00 1.2378780286493148e+01 2.3966910615998960e+00 0 0 1
96 2 9.2922894197695705e+00 1.2234299667696080e+01 3.3386964005769491e+00 0 0 1
142 1 9.1415739548684698e+00 1.5316828070986594e+01 1.3395193174741822e+00 -1 0 1
143 2 9.4368950180393014e+00 1.5396792570579162e+01 4.2304025066258832e-01 -1 0 1
220 1 1.1691368017064274e+01 1.1006029554894726e+01 1.8505170858134696e+00 -1 -1 1
222 2 1.0883898818460207e+01 1.1538085491847974e+01 1.8532369702594531e+00 -1 -1 1
221 2 1.1985175572762572e+01 1.1066350832838880e+01 9.0085086559635641e-01 -1 -1 1
100 1 2.5515285150545770e+00 8.2148552404746911e-01 5.4312397738757721e+00 1 0 0
183 2 1.2778072725947183e+00 3.9336813881247954e+00 6.0124425334489766e+00 -2 0 0
92 2 2.5179175769539381e+00 2.2953085298791502e+00 6.3461943485843513e+00 1 1 0
91 1 2.5357281874156943e+00 3.1848975284392793e+00 6.6902458863817769e+00 1 1 0
267 2 2.7840867572232879e+00 3.4356848785706946e+00 8.5163884782300983e+00 0 0 0
265 1 2.9115908498804317e+00 3.5176427762270532e+00 9.4634718328585130e+00 0 0 0
93 2 3.2247555556600682e+00 3.6307462672590538e+00 6.1806854052000348e+00 1 1 0
181 1 6.3184550391316952e-01 4.6199290070319021e+00 5.6513459945195432e+00 -2 0 0
102 2 1.8001574962176758e+00 1.8542184789512112e-01 5.7809074095609025e+00 1 0 0
266 2 2.9257645190948005e+00 2.6315645836477919e+00 9.7742317623641455e+00 0 0 0
213 2 4.2577942016015369e+00 7.7318477867415192e-02 5.4856126019816234e+00 0 1 -1
203 2 1.1239899128238959e+00 4.2944259554710511e+00 9.7471862457950174e+00 0 1 0
81 2 1.8678166049556140e+00 3.8843699456760292e-02 9.4543049222543480e+00 0 0 0
145 1 4.8031941455946843e+00 4.3999407260499765e+00 5.5502384689236237e+00 0 -1 0
262 1 7.3265228167063325e+00 8.4444541505994486e-01 5.2858873918619311e+00 -1 1 0
162 2 6.3713778671394818e+00 3.7198261832299786e+00 6.1963733134996621e+00 0 0 0
161 2 7.1977648051653125e+00 2.3985143471716306e+00 6.1079880216372793e+00 0 0 0
160 1 7.1666677507058028e+00 3.2251247736042696e+00 6.5637597419789389e+00 0 0 0
44 2 7.2351796012682907e+00 3.6790038690827722e+00 8.1932345951191294e+00 -1 1 -1
43 1 7.0934472415546788e+00 3.7096627640068971e+00 9.1673141441991959e+00 -1 1 -1
45 2 7.2285043490671281e+00 2.8640238650634067e+00 9.5475938015759070e+00 -1 1 -1
264 2 7.8775252219214069e+00 4.2152448789197744e-02 5.6373499763285579e+00 -1 1 0
84 2 8.7488141350676614e+00 4.0172862752225909e+00 5.8585281033080641e+00 -2 1 2
263 2 6.3441842536580086e+00 3.8807530343291896e-01 5.4601188593915335e+00 -1 1 0
236 2 6.5188960933084417e+00 5.4926485644593226e-01 9.6169790551646308e+00 0 1 0
32 2 8.7462516489811328e+00 4.4675197978264256e+00 9.7550883381683597e+00 0 1 0
126 2 4.3713142869657915e+00 9.7690543358124798e-02 9.2209373049964256e+00 0 0 0
170 2 8.5829242093028704e+00 1.7316585360179840e-02 9.3706305770191634e+00 0 0 0
212 2 4.7783661519710234e+00 -4.7722009162098900e-02 6.9577735012183872e+00 0 1 -1
157 1 1.1651607760901282e+01 7.6497862174676801e-01 5.3861846032693412e+00 -1 0 -1
159 2 1.1556871217388021e+01 1.7117367116520483e+00 5.7223679535466232e+00 -1 0 -1
248 2 1.2421118334529609e+01 3.6783850440235075e+00 5.8494170283701097e+00 1 1 0
249 2 1.1705037423858567e+01 3.3193208970682617e+00 7.3253019184333397e+00 1 1 0
247 1 1.1630036859020439e+01 3.3058685539398929e+00 6.3035805185397003e+00 1 1 0
83 2 1.0211385355879894e+01 3.9697547374331084e+00 5.8907783730167411e+00 -2 1 2
109 1 1.1746543686259550e+01 3.3601776041982538e+00 9.0859350458782870e+00 0 0 0
82 1 9.4878929397366178e+00 4.5346344023501910e+00 5.5556928232606753e+00 -2 1 2
158 2 1.2467172488535606e+01 4.5824233118312263e-01 5.8700979514798819e+00 -1 0 -1
110 2 1.1002581968579456e+01 3.9321942862401391e+00 9.2737055272697120e+00 0 0 0
111 2 1.2550446647128702e+01 3.8431379891912183e+00 9.4453770731419944e+00 0 0 0
39 2 1.1530229966346752e+01 1.6178481484113878e+00 9.5976899249330998e+00 -1 0 0
256 1 2.2829052340701583e+00 8.7747362592055911e+00 5.5295419906273846e+00 0 -1 0
257 2 3.1337775810150941e+00 8.3021751149915861e+00 5.7899045739429900e+00 0 -1 0
131 2 1.1497267114559742e+00 7.5791343601716630e+00 6.0726266348351787e+00 0 -1 1
130 1 5.2821632546816277e-01 6.9712892492408463e+00 6.4721337881067420e+00 0 -1 1
85 1 5.0737769952945588e-01 7.3160437845006978e+00 9.1396794504045147e+00 0 0 0
132 2 4.1459760313547084e-01 6.0941388396337803e+00 6.0526936211411391e+00 0 -1 1
87 2 4.5885561682735387e-01 7.1931707793540038e+00 8.1323254031910572e+00 0 0 0
207 2 2.0497067659170094e+00 8.1361936845290792e+00 9.3286156653407559e+00 1 0 0
206 2 3.5856995736336823e+00 8.2681933848733546e+00 9.1224825569169106e+00 1 0 0
205 1 2.8464119710387275e+00 8.5940439386563252e+00 9.6848344752633508e+00 1 0 0
147 2 4.9458051215718299e+00 5.3346057806335221e+00 5.7842307620806714e+00 0 -1 0
74 2 5.0905003549963705e+00 7.2626003109128696e+00 7.0691888637666862e+00 0 0 0
271 1 7.0846488968292016e+00 8.5278361816011365e+00 5.2622185666084702e+00 0 0 0
73 1 4.7851980107462007e+00 7.2396247986158748e+00 6.1154838570757013e+00 0 0 0
13 1 5.1826860406140760e+00 7.4307957838631422e+00 9.0920923121860007e+00 0 0 -1
273 2 7.7478822724235528e+00 8.0223850388706026e+00 5.7065061422398218e+00 0 0 0
272 2 7.0224242170440334e+00 9.3797451038658544e+00 5.7570493189905454e+00 0 0 0
75 2 5.6085323859275897e+00 7.6618277081763191e+00 5.6423178014655146e+00 0 0 0
15 2 5.9024234197099776e+00 7.9470937146468668e+00 9.4947678596887712e+00 0 0 -1
14 2 5.1821407234382315e+00 6.4982396259224959e+00 9.5075936195081852e+00 0 0 -1
180 2 8.0589641739927238e+00 8.4682459558503833e+00 9.7236987955009724e+00 0 0 0
86 2 1.3101523323849115e+01 7.9081424123841568e+00 9.4291777633220626e+00 -1 0 0
18 2 9.3779593394501504e+00 6.3352461906868154e+00 5.9102720577351331e+00 0 0 0
287 2 9.1147434042179967e+00 7.2745066390196857e+00 8.1768182422547291e+00 0 0 0
16 1 9.2342989942650568e+00 7.2706774871248570e+00 6.1664885999468710e+00 0 0 0
241 1 1.1755059719276417e+01 8.5012001990411363e+00 5.4810231961168654e+00 1 0 0
286 1 9.2856148495943422e+00 7.3641650528434655e+00 9.1312105822966174e+00 0 0 0
17 2 1.0043114425638947e+01 7.6664258859336192e+00 5.8566164512482350e+00 0 0 0
242 2 1.2360609394383339e+01 7.9149265354807197e+00 5.9760928212619975e+00 1 0 0
288 2 9.3555817529828786e+00 6.4330715891973460e+00 9.5510247845348530e+00 0 0 0
275 2 1.1580756979912096e+01 1.0037977188023559e+01 6.1216540194954048e+00 0 0 1
225 2 2.3042173085722286e+00 1.0538577234860895e+01 5.8688343557822176e+00 0 -1 0
128 2 2.8549720482716596e+00 1.0568360495840690e+01 9.2007646872757931e+00 0 0 0
223 1 2.4275425844803395e+00 1.1436203725083185e+01 6.1850079863037344e+00 0 -1 0
224 2 1.7530172524549987e+00 1.2005688864475740e+01 5.7454821304191830e+00 0 -1 0
129 2 2.5586112298581427e+00 1.1206561602307431e+01 7.7604271763430663e+00 0 0 0
127 1 2.5465732225628996e+00 1.1362113093135395e+01 8.7152607502356823e+00 0 0 0
250 1 3.3808210654361431e-01 1.5222715387078740e+01 9.0639282407759048e+00 2 0 1
117 2 4.1207723605703939e-01 1.5018549079779421e+01 7.3491122742704436e+00 0 0 0
116 2 4.2074957222583664e-01 1.4331137708507587e+01 5.9245658081348482e+00 0 0 0
25 1 3.5119100075277432e-01 1.2667918087188754e+01 5.2096354702766492e+00 1 -1 0
252 2 2.8015343611517896e-01 1.4404058531218146e+01 9.5731730514939457e+00 2 0 1
115 1 5.0577031631748304e-01 1.5187406107662603e+01 6.3995339750310256e+00 0 0 0
234 2 3.8930014691497985e+00 1.2435745624480155e+01 5.6247607847388963e+00 0 -1 1
57 2 4.1390382700685917e+00 1.2965702178817638e+01 9.1318861260813193e+00 -1 0 -1
65 2 6.7181252569737424e+00 1.0516611165953591e+01 9.6519503016722048e+00 0 0 0
232 1 4.7945279734569377e+00 1.2763248124188038e+01 5.3099577926216899e+00 0 -1 1
233 2 4.7672515980374923e+00 1.3779782601718168e+01 5.2369456952663676e+00 0 -1 1
211 1 4.9148686296052286e+00 1.5487165025745995e+01 6.0234628909814845e+00 0 0 -1
124 1 5.2402498065424714e+00 1.5719493946531797e+01 8.8200576512750075e+00 0 -1 0
66 2 6.7460517682001893e+00 1.1175612713286037e+01 8.1576011256735690e+00 0 0 0
215 2 6.0070053888881798e+00 1.1570242688303187e+01 5.8054356340227624e+00 0 1 0
214 1 6.7931966869960538e+00 1.1078329496489138e+01 6.1333612383685061e+00 0 1 0
216 2 7.5941789600155483e+00 1.1535452225818915e+01 5.7953169396804931e+00 0 1 0
64 1 6.5795921448581760e+00 1.1342252139346131e+01 9.1269668787695579e+00 0 0 0
125 2 5.3812229045196904e+00 1.4806230090924194e+01 9.1299828604345912e+00 0 -1 0
120 2 8.3947035963573562e+00 1.2062656345996633e+01 9.3221744845379675e+00 -1 0 1
56 2 5.5735936727680038e+00 1.2624029158333245e+01 9.4840838863430967e+00 -1 0 -1
55 1 4.8480030675531696e+00 1.3260668140063913e+01 9.7458765043809450e+00 -1 0 -1
90 2 1.1607073707280538e+01 1.0626449620340217e+01 9.3401073192566351e+00 -1 0 0
26 2 1.3051167210923118e+01 1.1999727077635020e+01 5.5813004427007540e+00 0 -1 0
77 2 9.8861790130380705e+00 1.5775737653811358e+01 6.2342661050115238e+00 -1 -1 0
171 2 1.0140740209685546e+01 1.5535429132648874e+01 9.2685115342760369e+00 0 -1 0
251 2 1.2859240345223952e+01 1.5728076355382710e+01 9.2644890683268031e+00 1 0 1
151 1 9.0446222478863056e+00 1.2332367656804017e+01 5.4956564938335521e+00 -1 0 0
169 1 9.2330756121068021e+00 1.5257713644490227e+01 9.0080172361318844e+00 0 -1 0
152 2 9.3106286254425648e+00 1.3199882447871927e+01 5.8087232038888343e+00 -1 0 0
76 1 9.1724841312604326e+00 1.5121640014449342e+01 6.3326502271393847e+00 -1 -1 0
78 2 9.1521839781332304e+00 1.5178713650595325e+01 7.2978175131759526e+00 -1 -1 0
153 2 9.8158355011515503e+00 1.1745278549035394e+01 5.6520432048177449e+00 -1 0 0
276 2 1.1553075573873848e+01 1.1160283849080148e+01 7.1098057804604498e+00 0 0 1
274 1 1.1349709215524118e+01 1.0974746284226772e+01 6.1896183053282918e+00 0 0 1
88 1 1.1614246582255923e+01 1.1515587748242115e+01 8.9749163278070796e+00 -1 0 0
89 2 1.0753594855082799e+01 1.1911195698197094e+01 9.1451321644801702e+00 -1 0 0
107 2 1.2869905620797851e+01 1.2192873997288943e+01 9.6544723134223673e+00 0 0 1
119 2 9.0905192137338311e+00 1.3431617446560935e+01 9.2916566056893579e+00 -1 0 1
118 1 9.2539327117287620e+00 1.2515621677667108e+01 9.5018179989611937e+00 -1 0 1
230 2 4.2742446523592079e+00 4.5471101895702022e+00 9.9984976941834915e+00 0 0 0
202 1 3.8549131332783793e-01 4.7188290049118526e+00 1.0324031204476729e+01 0 1 0
79 1 2.6254510881516042e+00 6.1123988253787365e-01 9.9201682511030889e+00 0 0 0
99 2 3.2824333174112237e+00 3.7661415276592352e+00 1.3374400872356052e+01 1 0 0
98 2 1.8205380555048905e+00 3.8116077064618810e+00 1.3518384570413154e+01 1 0 0
97 1 2.5671985338303944e+00 3.2433306894772760e+00 1.3774359273384771e+01 1 0 0
208 1 2.3556935002313728e+00 6.2253985574803383e-01 1.2704481473433731e+01 1 1 -1
210 2 2.6024911675637870e+00 1.4832623508914393e+00 1.3086733716603316e+01 1 1 -1
80 2 2.3939890393413124e+00 5.5067837276582754e-01 1.0936509671165226e+01 0 0 0
209 2 1.4854961900965340e+00 2.0302423704666989e-01 1.3062367890255196e+01 1 1 -1
184 1 3.4052711784444550e-01 4.5694599370511328e+00 1.2993356638513031e+01 0 0 0
185 2 8.8778295558411296e-02 4.6006767734188534e+00 1.2052308638393061e+01 0 0 0
35 2 3.9554087706778418e+00 6.3046188966525918e-02 1.3124326991984464e+01 1 1 0
231 2 5.8592273068971936e+00 4.7232762700106408e+00 9.8720188578947941e+00 0 0 0
229 1 5.0295989532628873e+00 5.1392339180830433e+00 1.0198788104340135e+01 0 0 0
235 1 7.3205503333578532e+00 9.4346135672479536e-01 1.0083739254839468e+01 0 1 0
24 2 7.3080778342770971e+00 2.3413942081107049e+00 1.3484382875363988e+01 0 1 0
22 1 7.4159450543176462e+00 3.2701019549800892e+00 1.3777022483414029e+01 0 1 0
21 2 5.8364384009894161e+00 4.2181596043465515e+00 1.3263389964358439e+01 0 0 -1
253 1 7.2751761331335754e+00 6.6091971712390396e-01 1.2682121712180940e+01 -1 0 0
237 2 7.0169038429876975e+00 9.0906735000859473e-01 1.1033315188436074e+01 0 1 0
20 2 5.2083203883437514e+00 4.8051592874205431e+00 1.1927685095494919e+01 0 0 -1
255 2 6.5423160811057315e+00 8.8191742668806888e-02 1.3004187203172314e+01 -1 0 0
19 1 5.1417011311786709e+00 4.7666772035416125e+00 1.2884065266678316e+01 0 0 -1
254 2 8.0706309972923442e+00 9.7343217218567285e-02 1.2849526929641755e+01 -1 0 0
30 2 8.7212624824035103e+00 4.0447799744080939e+00 1.2788956622631552e+01 -1 0 0
37 1 1.1632743114324430e+01 6.8246559255969508e-01 9.8490273561014483e+00 -1 0 0
31 1 9.6342639573586766e+00 4.7259290122507913e+00 1.0019830734584605e+01 0 1 0
33 2 9.4796803103265788e+00 4.6445655296174237e+00 1.1052922464417652e+01 0 1 0
28 1 9.5762400605873275e+00 4.5502526211660230e+00 1.2741865179611736e+01 -1 0 0
156 2 1.2346867741972037e+01 3.4549773986122747e+00 1.3910015050838439e+01 -1 1 0
38 2 1.1730674288900456e+01 7.2942624105780318e-01 1.0829239828444809e+01 -1 0 0
29 2 1.0266199156315455e+01 3.8869387480310031e+00 1.3029875614546292e+01 -1 0 0
154 1 1.1465115273390595e+01 2.9687262657914943e+00 1.4055610723181456e+01 -1 1 0
282 2 1.1641054053207860e+01 1.4710703563943732e+00 1.3099651995191049e+01 0 0 0
280 1 1.1591913510727355e+01 5.7611078112286906e-01 1.2655445200012476e+01 0 0 0
281 2 1.2501701688289860e+01 1.8059960143167508e-01 1.2801609720018426e+01 0 0 0
204 2 2.2212032592009240e-01 5.5667353411229898e+00 9.8275782281166677e+00 0 1 0
3 2 1.5479231338125679e+00 7.7941403915658611e+00 1.3117299980172433e+01 0 0 -1
42 2 3.0213624705788122e+00 8.2486298292886850e+00 1.1521175411000407e+01 0 0 0
40 1 2.8906092316798202e+00 8.2703216793211745e+00 1.2450877774362457e+01 0 0 0
41 2 3.6280330269886081e+00 7.9810385435557212e+00 1.3017247325826567e+01 0 0 0
186 2 6.4459534943373364e-01 5.5262381334858501e+00 1.3213477847104507e+01 0 0 0
1 1 7.4353536039586854e-01 7.2646208347756964e+00 1.3438549842832131e+01 0 0 -1
245 2 2.7324793598935679e+00 1.0168910962993040e+01 1.2966029554151312e+01 1 0 0
178 1 7.2695994651901259e+00 8.8638891249721912e+00 1.0035844283299827e+01 0 0 0
63 2 5.1106557423355570e+00 6.5225392493042351e+00 1.3398339653255615e+01 1 0 -1
61 1 5.1089685957457540e+00 7.4406691365359414e+00 1.3800652740228479e+01 1 0 -1
179 2 7.2888946884633690e+00 8.5097705512225037e+00 1.0939111499210309e+01 0 0 0
70 1 7.4419267996169074e+00 8.3745497603854293e+00 1.2690151692876743e+01 0 0 0
71 2 6.6977081243311885e+00 7.8355995472057716e+00 1.3063781053142939e+01 0 0 0
72 2 7.2475792414667959e+00 9.2738462454622450e+00 1.3060290285134830e+01 0 0 0
150 2 8.7822901060075829e+00 7.5563861458623478e+00 1.3255988872349267e+01 0 0 0
164 2 1.0710908298385611e+01 8.4662720258686175e+00 9.8324371492733178e+00 0 0 0
163 1 1.1498936568476648e+01 8.9751005901898306e+00 9.9667826239181814e+00 0 0 0
2 2 1.3209824491130082e+01 7.6779221870116086e+00 1.3225243808013463e+01 -1 0 -1
148 1 9.5346582139588207e+00 7.0881949473697512e+00 1.3677802439115585e+01 0 0 0
149 2 9.5708010072884377e+00 6.2632270479571046e+00 1.3168351765582610e+01 0 0 0
165 2 1.1689697528752433e+01 9.0001537382213339e+00 1.0939284562609807e+01 0 0 0
187 1 1.1680745710120586e+01 8.6961529930029506e+00 1.2769072622792237e+01 -1 0 -1
189 2 1.0966769140680647e+01 8.0696841715506622e+00 1.3067440823570536e+01 -1 0 -1
188 2 1.1497069386798998e+01 9.4985030315659991e+00 1.3277866745834725e+01 -1 0 -1
105 2 5.4363939674088618e-02 1.5070141487820319e+01 1.4611862551173282e+01 0 0 -1
108 2 1.1337503736611723e+00 1.2270909751977674e+01 9.8944677728157338e+00 1 0 1
106 1 2.6655681111783269e-01 1.2551149709447095e+01 1.0270935771602407e+01 1 0 1
244 1 2.6298080996180699e+00 1.1068257034086757e+01 1.3433278452924583e+01 1 0 0
8 2 1.2612900521760488e+00 1.1928116480145315e+01 1.3020038429066418e+01 0 0 0
246 2 3.2853562444496660e+00 1.1599221073867255e+01 1.3005288190370944e+01 1 0 0
7 1 4.6740542154938380e-01 1.2565376042053641e+01 1.2878844779252297e+01 0 0 0
9 2 4.1646194910521689e-01 1.2471084523261084e+01 1.1881199952184303e+01 0 0 0
104 2 4.7350230072953781e-01 1.4218634192020639e+01 1.3405211056570401e+01 0 0 -1
103 1 4.0468957557524798e-01 1.5130678578263145e+01 1.3728091670802424e+01 0 0 -1
36 2 4.7757732038998411e+00 1.5496656739990717e+01 1.4355910826586456e+01 1 0 0
123 2 6.8436961900488349e+00 1.1086684816155199e+01 1.4351725164016919e+01 0 -1 -1
34 1 4.7546567704358367e+00 1.5438653011905300e+01 1.3349823263235141e+01 1 0 0
238 1 4.9821637915819545e+00 1.2869741970038476e+01 1.2430818249052745e+01 0 0 0
240 2 4.8680627882161600e+00 1.2984956327428952e+01 1.1424327867096299e+01 0 0 0
239 2 4.8261541859848691e+00 1.3704967364239096e+01 1.2840871513187924e+01 0 0 0
122 2 6.1870304414129267e+00 1.1845234741111652e+01 1.3030416967652766e+01 0 -1 -1
121 1 6.9733111519483399e+00 1.1294757744864109e+01 1.3321707684087489e+01 0 -1 -1
219 2 8.5628037050580375e+00 1.1923787921865477e+01 1.3055321020395304e+01 0 0 -1
194 2 1.0280428073631697e+01 1.5503650957293248e+01 1.3049030171082876e+01 0 -1 -1
195 2 9.2613976168835705e+00 1.4231868965182976e+01 1.3075751164599275e+01 0 -1 -1
217 1 9.2325915255885533e+00 1.2520274935202515e+01 1.2673089853645976e+01 0 0 -1
218 2 9.1723453884475141e+00 1.2270389811608082e+01 1.1700547264075873e+01 0 0 -1
193 1 9.3642436223525536e+00 1.5143149924295617e+01 1.3343613476698465e+01 0 -1 -1
139 1 1.1430692369789146e+01 1.1342930296693241e+01 1.3942454277274578e+01 0 0 0
140 2 1.0567032681594736e+01 1.1773383102812337e+01 1.3703760989308982e+01 0 0 0
141 2 1.2189856054903238e+01 1.1663704238672560e+01 1.3432772652286143e+01 0 0 0

Velocities

269 -9.8217939803870316e+00 1.7492328863149640e+00 3.1599889652493445e+01
268 -5.2335668759169369e+00 1.3048735542624959e-01 1.3482531732501413e+00
47 1.2447074831148408e+01 -1.1938204620415902e+01 -1.3300441619908375e+01
138 3.0876861024276785e+00 -6.3959315413279878e+00 -1.7837545647658626e+01
270 -8.9735261245506059e+00 -1.2611466242045317e+01 -1.0737354707748670e+01
46 1.9045984460846452e+00 2.0473655277875827e-01 -1.6000165522537568e+00
101 6.1708277079612850e-01 -1.0500514777775209e+01 -5.7921349452127693e+00
136 -1.4324461352807467e+00 -2.5197188852483179e+00 3.7386128215941663e+00
48 -9.4205536070727796e+00 2.4479305963473617e+00 -1.8394895426811594e+01
182 1.7685114176520386e+01 3.0793036770023988e+01 2.7595805918554581e+00
260 -3.4146622145896742e+01 3.5836230681137778e+01 5.5351985150960346e+00
67 -2.3376092505583679e+00 7.2928680800158951e-01 -3.1944148308658254e-01
58 -4.1739111654368677e-01 -4.3891850688761966e+00 4.1835024567540602e+00
59 -5.9614054752013281e+00 -1.7646290184260092e+01 -2.4053874907825545e+01
69 -2.4652663620378753e+01 1.2650452182098304e+01 -8.5997598215160078e+00
60 -3.2653627785600223e+00 -1.3004496809559866e+01 -1.3801363846684296e+01
226 8.8482263266514583e-01 2.2940448519375050e+00 8.0039553391415041e-01
227 -5.5598908126834523e+00 2.5471861927319914e+01 -1.0208090434174316e+01
146 2.1124882778379217e+01 -5.9023128907394655e+00 -3.4349273657014128e+00
228 1.3375376975771443e+01 1.0631485709970438e+01 -7.8980680001977177e+00
23 1.1705473685945794e+01 2.4470130401956972e+01 -9.2498419267025724e+00
175 -3.2203694568661398e+00 -1.7620938565110429e+00 1.7529261652382560e+00
190 -1.5711870159489272e+00 3.2387618285852517e+00 -2.0358086541215936e+00
191 -2.6217974591413512e+01 9.4997092507116321e+00 -2.4637328310855310e+01
192 -1.1671470702976908e+01 -2.1390485081187709e+01 -3.2710379339887083e+00
174 -3.7491013839438101e+00 8.7979581801888216e+00 -3.0763789995818293e+01
172 -3.3267587832059959e+00 -7.9309637549243490e+00 1.1216097229409885e-01
173 1.0171768355528378e+01 -1.0261211011713325e+01 7.9133244798701625e+00
177 -2.1587038030011669e+01 -1.4651127430018596e+01 7.7358843435465570e+00
155 -2.2669428976519651e+01 1.0148416254691025e+01 2.2441988192481475e+01
137 1.8532538243330766e+01 -2.0088089344298794e+01 -8.4729061925819202e+00
113 -1.7826368518512147e+01 -8.1131909792121508e+00 -2.9545257830013476e+00
112 3.0638451465231453e+00 4.4163425099958502e+00 9.6694819724488867e-01
114 -1.3108362726854178e+01 2.9311666067594755e-01 -1.5117584908586240e+01
258 2.8796298886229224e+00 -4.0101396517843062e+00 -2.3234801443586273e+00
49 -7.8478011169864437e-01 3.8003744172118212e+00 3.9716964677371305e+00
50 -1.8349039916956507e+01 -2.3189302451789100e+01 -4.7546688486359187e+01
168 2.0795097219390154e+01 -1.6973015621222933e+00 3.1453669050506115e+00
68 3.5310903059862038e+00 -1.0562629642558784e+01 2.1737005915803982e+00
166 5.6170314197320490e+00 2.4775556067422144e+00 -1.3367819970989809e+00
167 -9.0471884455838101e+00 -1.4865511524890543e-01 -9.7738876669621586e+00
196 -1.2348924055026198e+00 1.8362124870913086e+00 -2.0108773881015591e+00
198 -4.1368460224267444e+01 1.4526522731672996e+01 -3.0814623350658024e+00
197 -7.4195759774654562e+00 -1.3959911481617835e+01 1.8004472905761265e+01
62 -2.2749700737840661e+00 3.3697257502717399e+01 8.7365892321228511e+00
54 -3.3268618005791957e+01 1.9004868047179290e+01 1.0913167396616753e+01
51 8.5648362272334033e+00 -1.5624910169835308e+01 7.2469527078223122e+00
176 1.7700606001603830e+01 -4.8535236272339786e+00 2.1100623453319464e+01
53 -1.1418783844982965e+01 1.5337221081578754e+01 -1.3685627642746246e+01
52 -1.1408979349386779e+00 -5.7505047863516427e+00 -6.9311888800183805e+00
134 2.6076947076554791e+01 1.7781218388270645e+01 1.3414059678257088e+01
133 3.5868276361195428e-01 -5.0383128994341710e+00 4.5733170242536456e+00
135 -5.0774788945317004e+00 -8.4272894228266377e+00 1.3103431360928360e+01
243 -4.8090412506772164e+00 -1.1486615423828539e+01 -1.1235457802350480e+01
279 2.2350999197021849e+01 7.7594291934499378e+00 3.2448907002132373e+01
277 -1.8738451240521063e+00 -2.2423461729837229e+00 5.7487265736745545e+00
278 4.1485619169449187e+01 -1.4724157423411219e+01 -8.6322389942487510e-01
283 -3.0467157282901312e+00 1.6463255652320332e+00 2.0133222892060121e+00
259 -1.3240659289217824e+00 5.8764684403415401e+00 -5.8314470125996820e+00
285 -1.7948093003352461e+01 1.6217485422492476e+01 -1.3754588140431673e+01
27 -4.1351340605430487e+00 -2.1967503370765456e+01 1.4547250786832473e+01
12 7.8190808741499884e+00 -2.2199323288559429e+00 2.0612998168870266e+01
200 4.1825816850200956e+00 2.7771913155217058e+00 4.5229793884628816e-01
199 -6.2813700407304329e-01 6.4163609620277393e+00 -4.4169222618334842e+00
201 1.6260561546717291e+01 7.1283561160714024e+00 1.0931664650420652e+01
11 4.4833060103796143e+01 9.6214482940440804e-01 1.4940285386137196e+01
10 -4.3126241267731308e-01 4.2439840432340894e+00 -5.6772445419593911e+00
4 5.7721912749550679e+00 -1.9036173798103651e+00 -7.4851545174672995e-01
5 -1.0935255880344892e+01 -5.9988633749777387e+00 9.9077859150715319e-02
6 -1.7439883392359921e+01 -2.6374283678671087e+01 -9.3391163042666161e+00
261 -2.5654161504672761e+01 8.5528072692057382e+00 -8.8169236946243057e+00
284 6.4184745761174780e+00 -1.8769423890023265e+01 1.3658955359162843e+00
144 5.8676328311921493e+00 4.5414501454183931e+00 1.0852776926206030e+01
95 -7.1787631369328642e+00 -7.2379323409242540e+00 -5.5565085905910543e+00
94 7.8336582834912116e+00 6.4069564089030950e-01 -1.2543965043156196e+00
96 -9.9875131860343149e+00 1.8862487906737453e+01 -2.9266276728738745e+01
142 -3.9087166522876288e-01 6.5056320495910454e+00 9.6737129115209319e-01
143 1.3896323960503594e+01 4.5852142208078206e+00 2.4104291436560468e+00
220 -4.2249558099098907e+00 3.2278132466483833e+00 -1.1318644782527258e+00
222 -1.1624876542768714e+01 2.0722340873893497e+01 9.4371688967619640e+00
221 5.2420247114856187e+00 -3.4081362291561362e+01 -6.2842731659219879e+00
100 3.0933313004110836e+00 5.7662082665079222e+00 -1.6483881855118024e-01
183 2.6391170435253809e+01 1.1200244470375841e+01 4.7198866296268926e+00
92 9.8533729931879499e+00 -2.1975528128156590e+01 2.2291058598455791e+01