LAMMPS data file via write_data, version 15 Apr 2020, timestep = 2000000

288 atoms
2 atom types

1.2739866531346689e-01 1.3044846834685533e+01 xlo xhi
1.5181832912152959e-01 1.5545271570875791e+01 ylo yhi
1.4178709372118892e-01 1.4518134206280301e+01 zlo zhi

Masses

1 15.9994
2 1.00794

Atoms # atomic

119 2 2.4243972543960104e+00 1.4042270926179756e+00 2.9028591772259635e+00 2 1 3
120 2 1.4451638614234852e+00 1.2157302626222737e+00 4.1421348255630264e+00 2 1 3
197 2 1.0124388420722528e+00 4.1836264889641006e+00 1.1109955754334933e+00 -1 1 2
118 1 2.3324633063563076e+00 1.4509241212162896e+00 3.8645056397231450e+00 2 1 3
165 2 1.3501625180247037e+00 4.3257285817151114e+00 4.3409480401571550e+00 -1 2 1
264 2 2.5579973033071908e+00 2.5755995380033845e+00 8.1315904349502854e-01 -1 0 3
262 1 3.0083351942691667e+00 1.7507557226071866e+00 1.1489654903381750e+00 -1 0 3
263 2 2.6892331937434331e+00 9.4063024066418699e-01 7.0206622370527394e-01 -1 0 3
163 1 2.2705704347452569e+00 4.1296493541428188e+00 4.7092233115409599e+00 -1 2 1
196 1 1.7833277537107668e+00 4.2509744738456785e+00 4.8721156487176376e-01 -1 1 2
198 2 2.4751779157317606e+00 4.7437542697881856e+00 9.4007287605061618e-01 -1 1 2
164 2 2.6028036305422901e+00 3.2302654440492264e+00 4.4359483002646298e+00 -1 2 1
288 2 3.5967367083346757e+00 5.1312291332053714e+00 4.3906835793024230e+00 2 0 2
152 2 4.6110690130595486e+00 2.1112564429441445e+00 5.2407833382978786e-01 0 0 0
220 1 5.9927889463578019e+00 3.5311596353565755e+00 3.0459241236948094e+00 -2 0 1
222 2 5.7796708849723455e+00 3.2302687171551829e+00 2.1549052182614603e+00 -2 0 1
221 2 6.8772666438882748e+00 3.9562119767182562e+00 3.1358677702349840e+00 -2 0 1
236 2 5.4568765275845132e+00 2.5688923824894414e+00 4.4264555700359010e+00 -1 0 0
151 1 5.5023480655008452e+00 2.4975621121695362e+00 3.3282719498047408e-01 0 0 0
287 2 5.0823115749575409e+00 4.9289035314175429e+00 3.6865386388940844e+00 2 0 2
181 1 8.3161443623739437e+00 4.1972693897653288e+00 3.9460348482143366e+00 -2 0 1
182 2 8.1105793618442341e+00 4.4182527680110377e+00 4.8379784902384451e+00 -2 0 1
125 2 8.4489606958468322e+00 4.7418977028774574e+00 2.2261864045703403e-01 1 0 0
269 2 1.2265810320378961e+01 3.5140183780283452e+00 3.0418385055172674e+00 -1 -1 1
268 1 1.2581018191310015e+01 3.9978802279887478e+00 3.8629271274021240e+00 -1 -1 1
166 1 1.2265318840396979e+01 3.3993356553146010e+00 1.0986606483109633e+00 0 -1 0
168 2 1.2144471360888282e+01 2.5030920726681103e+00 7.0169581658297153e-01 0 -1 0
270 2 1.1987358206420389e+01 3.7905187371366273e+00 4.6059172799786365e+00 -1 -1 1
140 2 9.7812243249167707e+00 1.2692329639579438e+00 4.0585186654776884e+00 3 2 -1
139 1 1.0074965679882656e+01 2.1699074513530068e+00 4.4500132534674810e+00 3 2 -1
183 2 8.9904256964673337e+00 3.4723567606577070e+00 3.9915316611524960e+00 -2 0 1
265 1 1.2726308377520304e+01 7.1173711977464771e-01 4.7021739341064572e+00 -1 0 1
267 2 1.1939176417685701e+01 1.2288807066331406e+00 4.5751646004846664e+00 -1 0 1
167 2 1.1985127015303171e+01 4.0418074173376439e+00 4.2955066807687720e-01 0 -1 0
124 1 9.1691574415921586e+00 4.1913001649760870e+00 6.2159772517679523e-01 1 0 0
126 2 9.3550330053696875e+00 4.6425144334909136e+00 1.4505923451570677e+00 1 0 0
114 2 1.2877360610574737e+01 2.7984316906543938e-01 4.0852085882314526e-01 -2 1 0
286 1 4.3520492970150961e+00 5.5290093633447857e+00 3.9310004123116524e+00 2 0 2
121 1 3.0324393063139556e+00 8.4583759879573073e+00 6.1597390202181046e-01 0 -2 1
99 2 3.8361241499733247e+00 6.6895361934873563e+00 1.1431412941337884e+00 1 0 -1
123 2 3.4977421019348456e+00 9.0984092995675141e+00 1.1962796221947205e+00 0 -2 1
98 2 4.0070393699118272e+00 5.7734473897522562e+00 2.3612930336157634e+00 1 0 -1
97 1 3.9072189102097954e+00 5.7438994626894866e+00 1.3654984087827213e+00 1 0 -1
36 2 4.9641252145437313e+00 7.0496956638557267e+00 4.8951843903837071e+00 -2 -1 1
212 2 7.4993687002929335e+00 7.5926757569918690e+00 4.7890488556464677e+00 -2 0 -2
67 1 4.7639805947200626e+00 1.0337895693295110e+01 1.9489122545721007e+00 0 1 1
69 2 5.4035364436740538e+00 1.0120734730790613e+01 2.6263705448849639e+00 0 1 1
225 2 5.9315476703831918e+00 1.0411661432237647e+01 5.8864129889363082e-01 1 2 0
41 2 6.1980936835969302e+00 6.0962724526304539e+00 2.2743192517589628e-01 -2 1 0
5 2 1.1672300805915167e+01 8.1491102215475095e+00 2.1368503964190557e+00 -2 -1 0
4 1 1.0728533459602559e+01 8.2268311333855628e+00 1.8298882194505042e+00 -2 -1 0
193 1 1.0213398541081101e+01 6.0158581233237669e+00 2.9751556772875261e+00 2 0 0
195 2 1.1006060979449238e+01 5.5119367780800452e+00 3.3016303021499462e+00 2 0 0
6 2 1.0364750421811021e+01 7.5163240238095703e+00 2.4683548883572897e+00 -2 -1 0
194 2 9.4370962227217845e+00 5.7353830246119006e+00 3.4929731626972687e+00 2 0 0
104 2 1.2255421763533668e+01 9.7429753568220541e+00 4.1996648276976094e+00 -1 0 0
103 1 1.2847078102647835e+01 9.0467146209463323e+00 4.4705906354477332e+00 -1 0 0
240 2 9.6843923662232889e+00 9.3773234221427835e+00 6.2008134495980760e-01 -1 1 3
186 2 3.0816461638939772e+00 1.5406924498393014e+01 4.4411806574073109e+00 -2 0 0
65 2 2.7121704896655858e+00 1.1683890815284794e+01 4.1650005422427112e+00 1 0 -2
94 1 1.5016767348498479e+00 1.2478412646672865e+01 1.3610824861456894e+00 0 -1 1
95 2 2.1017083688879188e+00 1.2365662395143467e+01 2.1329103189921259e+00 0 -1 1
64 1 3.2312064176887452e+00 1.2178692004831529e+01 3.4846846929349331e+00 1 0 -2
66 2 3.3838423934218853e+00 1.3075527108925399e+01 3.8425278190471630e+00 1 0 -2
68 2 4.1336141557692265e+00 1.0872206157447554e+01 2.3983897986793301e+00 0 1 1
96 2 1.9764472188581959e+00 1.2026676914575475e+01 6.3035764298324204e-01 0 -1 1
184 1 3.5125914564755782e+00 1.4570337942595902e+01 4.6650055898940925e+00 -2 0 0
200 2 1.8992225124611817e+00 1.3919198190223785e+01 5.0734251135915953e-01 0 0 0
251 2 8.3620209127585028e+00 1.5448154564703898e+01 8.3836900567418349e-01 1 -1 2
207 2 8.6221575508245998e+00 1.5379056830236138e+01 4.5701160480965726e+00 1 -1 -2
234 2 8.0884420256461134e+00 1.0779664671316223e+01 4.9190631750216589e+00 2 0 -1
250 1 8.5486340806462131e+00 1.4654476471213318e+01 1.3113580412303416e+00 1 -1 2
171 2 6.1054192672800305e+00 1.3380758203275111e+01 2.9511675993871780e+00 2 -1 -1
169 1 6.0723149242788548e+00 1.3456273004667217e+01 3.9099168326937117e+00 2 -1 -1
133 1 6.0457762268571598e+00 1.3257611487843391e+01 1.1163195493994622e+00 1 -2 1
135 2 6.4460445379325604e+00 1.2490420649206037e+01 6.3970383215654025e-01 1 -2 1
170 2 5.2416975028203119e+00 1.3923023932992564e+01 4.1228845832695953e+00 2 -1 -1
252 2 7.6645003017099276e+00 1.4251966018485597e+01 1.4452804121967873e+00 1 -1 2
76 1 6.4128979179052941e+00 1.1031848692177281e+01 4.2883797774199621e+00 -2 -2 1
78 2 6.3066286462524737e+00 1.2025543716981254e+01 4.3488476011378108e+00 -2 -2 1
134 2 5.8282327281128179e+00 1.3854160833174909e+01 3.7589980880698159e-01 1 -2 1
205 1 9.3454782061664297e+00 1.5018714702082235e+01 3.9844697855673239e+00 1 -1 -2
206 2 8.9158198472741752e+00 1.4862855981450711e+01 3.1006702983758125e+00 1 -1 -2
233 2 9.6591236913193441e+00 1.0772560707703288e+01 4.5728490266835866e+00 2 0 -1
28 1 1.0969717725746893e+01 1.1101903011042150e+01 3.6602925810418583e+00 0 -2 1
30 2 1.1029168147366352e+01 1.1265367036202122e+01 2.7339130206138278e+00 0 -2 1
29 2 1.1323811452285600e+01 1.1966012702616073e+01 3.9933506664713239e+00 0 -2 1
260 2 9.7461433589328053e+00 1.3821726958676283e+01 6.3958248305069776e-01 0 -1 -1
261 2 1.1227624824951146e+01 1.3110278800618339e+01 1.4523747107187124e-01 0 -1 -1
209 2 1.2734130882407403e+01 1.1692410458968823e+01 1.2226109870303417e+00 1 0 2
208 1 1.1844309715576564e+01 1.1340948943332222e+01 1.0012378444685335e+00 1 0 2
210 2 1.2006026653504048e+01 1.0641246518175716e+01 3.5002848166495382e-01 1 0 2
90 2 1.1818988765065466e+01 1.4288538646884245e+01 4.8782949732232819e+00 -1 0 2
88 1 1.1218195911743727e+01 1.3526705550771787e+01 4.7563101505829133e+00 -1 0 2
89 2 1.0387888604182127e+01 1.3971645263832645e+01 4.5070307777014635e+00 -1 0 2
249 2 1.4043187898690801e+00 3.1735526309075297e+00 8.3360499821537495e+00 0 0 0
248 2 1.8397262124809530e+00 2.3864027384518804e+00 9.6638021205269276e+00 0 0 0
247 1 1.6634316305063952e+00 2.2993284717837330e+00 8.7150413761396450e+00 0 0 0
245 2 1.7282567901017800e+00 4.4163218945521923e+00 6.2043967768976849e+00 -2 1 -1
87 2 8.2276599559417563e-01 1.2001199553608517e+00 7.8608029928804939e+00 1 0 -2
8 2 3.6334384950588299e+00 2.4125695981609270e+00 7.9853801492910996e+00 -3 0 1
244 1 1.1690546052461295e+00 4.2864642864845699e+00 7.0339563600072550e+00 -2 1 -1
7 1 4.3782313586847987e+00 2.9171693095859728e+00 7.6491831471409588e+00 -3 0 1
149 2 3.7393634052354616e+00 4.8224793775469621e+00 8.0786585525218477e+00 1 -1 1
85 1 2.7586025508214618e-01 4.9374067926049919e-01 7.4167425956167081e+00 1 0 -2
246 2 2.3455897332308101e-01 4.0763687929955363e+00 6.8272937749749163e+00 -2 1 -1
237 2 5.9856931883458824e+00 1.2689594688294161e+00 5.1148383614001487e+00 -1 0 0
235 1 5.4810688244809267e+00 2.0660806888051244e+00 5.2627806075848325e+00 -1 0 0
9 2 4.5068773839392327e+00 2.4867697233541275e+00 6.8027582348500326e+00 -3 0 1
143 2 6.5739224136000933e+00 3.5714827537191813e+00 5.8752729051090933e+00 2 0 0
142 1 7.1618137576707337e+00 4.1622883639262120e+00 6.4076670164206817e+00 2 0 0
144 2 6.4238342511127593e+00 4.7676548878422995e+00 6.8439353541931087e+00 2 0 0
39 2 5.7608152488526088e+00 3.0320773914544845e+00 8.9727151910689500e+00 0 0 1
10 1 8.7374080015278714e+00 4.6010200763827571e+00 8.6679100915924465e+00 -1 3 -1
37 1 6.4605255311605525e+00 2.8154855879525904e+00 9.6407331982182889e+00 0 0 1
178 1 7.3667213721805300e+00 3.1206936628323489e-01 5.7940431013315932e+00 0 2 1
179 2 7.7146322764202031e+00 7.7364059789457718e-01 6.5682933524070677e+00 0 2 1
11 2 8.0310473674905971e+00 4.2722115640845075e+00 8.1034635414121929e+00 -1 3 -1
12 2 8.4021558559674183e+00 4.3271641237662335e+00 9.5572812871302339e+00 -1 3 -1
18 2 9.0220612740902695e+00 2.8802506645197101e+00 7.6094420563019050e+00 -1 1 1
266 2 1.2922940294891877e+01 6.8030835073095453e-01 5.6695134157982379e+00 -1 0 1
229 1 1.1319636777317388e+01 4.2197936271554477e+00 6.4923692623943525e+00 -2 -1 -1
230 2 1.0954818369729498e+01 3.6050208620288839e+00 7.1264635585740495e+00 -2 -1 -1
141 2 9.8034176095009045e+00 1.9874047171547962e+00 5.3501567400217569e+00 3 2 -1
146 2 1.0885994225479077e+01 9.4590653748881126e-01 9.4763440907141181e+00 -1 0 0
16 1 9.1864315856225964e+00 2.1565372271699927e+00 7.0719975099065202e+00 -1 1 1
17 2 9.6709339880806304e+00 1.5470835301766666e+00 7.6521438826399875e+00 -1 1 1
231 2 1.0684276057784146e+01 5.0196157040059770e+00 6.4530292963995697e+00 -2 -1 -1
145 1 1.0950591633689314e+01 2.8662676038779744e-01 8.7817692139750285e+00 -1 0 0
86 2 1.2285015118359535e+01 4.5493575128916830e-01 7.8805319416810988e+00 0 0 -2
14 2 1.3373960816706005e+00 9.9845169345729587e+00 5.0651329039031223e+00 2 -2 1
284 2 3.5959020600972638e+00 1.0359191903981042e+01 6.0680105971566345e+00 0 0 1
214 1 2.6217589083949417e+00 8.5103216919260483e+00 8.3671588085239570e+00 0 0 1
216 2 3.0042664153987304e+00 8.6973439280960605e+00 7.5255567496393967e+00 0 0 1
215 2 2.1776465316242737e+00 7.6626945823540069e+00 8.3178694895365588e+00 0 0 1
93 2 2.2643881955396186e+00 9.7117286783063399e+00 9.6266549911252994e+00 2 0 1
159 2 8.7502634081952957e-01 5.7152145301549506e+00 8.0264820695347687e+00 2 0 0
283 1 4.4126300162580483e+00 9.9604496328277854e+00 6.3916380148380298e+00 0 0 1
157 1 6.6870389210149883e-01 6.5031957073203808e+00 8.5252593440771207e+00 2 0 0
148 1 3.7344136049149532e+00 5.7976286480768824e+00 8.2405448414324454e+00 1 -1 1
47 2 4.2911502135328590e+00 8.4641869409781236e+00 9.2750977936113586e+00 -1 0 0
150 2 3.7473067470556831e+00 5.8915828860391901e+00 9.1450901988118325e+00 1 -1 1
213 2 8.6260604330859714e+00 8.6678236540293874e+00 5.0919914789088585e+00 -2 0 -2
211 1 8.4022129689213685e+00 7.7023236579872663e+00 5.0617644854006452e+00 -2 0 -2
35 2 5.1010652520066531e+00 8.4301075784959458e+00 5.6582713259974060e+00 -2 -1 1
34 1 5.5663944335876145e+00 7.6719364877013305e+00 5.3218067233082698e+00 -2 -1 1
117 2 5.8864441690040676e+00 6.8558850354759473e+00 6.6722862722108154e+00 3 -1 0
115 1 6.1831459674977571e+00 6.3561801036703951e+00 7.4819627465767216e+00 3 -1 0
60 2 7.4082668543124974e+00 7.3313535236841725e+00 8.4166942019770552e+00 2 0 0
116 2 5.2948912120821925e+00 6.2392426369548577e+00 7.9208876222486593e+00 3 -1 0
83 2 8.0875851862071109e+00 9.1696877314637391e+00 8.5880190005019017e+00 -1 0 1
84 2 8.1964233207142456e+00 9.9961272911202848e+00 7.1376126043955974e+00 -1 0 1
82 1 8.2246573560625293e+00 1.0051423117224811e+01 8.1170817758854596e+00 -1 0 1
58 1 7.5541324444855888e+00 7.8052429438653750e+00 9.2582791928883204e+00 2 0 0
48 2 5.7809341518107882e+00 8.2006989251874423e+00 9.6806834491124825e+00 -1 0 0
258 2 9.4374541851914628e+00 6.1802257523451516e+00 7.4146681260586300e+00 -2 0 0
257 2 9.3776579644939666e+00 7.0969074503258787e+00 6.1550303165095386e+00 -2 0 0
105 2 1.2441957291398982e+01 8.6209508933852810e+00 5.1891726814166583e+00 -1 0 0
256 1 1.0014262906780360e+01 6.5940841234927339e+00 6.7717998733597495e+00 -2 0 0
158 2 1.2976319076979735e+01 7.1227062630480198e+00 8.1063414786634382e+00 1 0 0
243 2 1.1289493568664838e+01 7.8572304826498103e+00 7.1645487672090296e+00 -1 0 0
241 1 1.2118310996813321e+01 8.3126714910175750e+00 7.2816740282749803e+00 -1 0 0
242 2 1.1784416178074331e+01 9.1942969958688003e+00 7.5537254605923927e+00 -1 0 0
13 1 2.0361536116796799e+00 1.0621696426639971e+01 5.3232801701493369e+00 2 -2 1
254 2 1.8282783849061415e+00 1.1262541743366988e+01 8.6279115140775851e+00 1 -1 1
15 2 1.7130298561766957e+00 1.1025911628141042e+01 6.1585536873469007e+00 2 -2 1
253 1 1.4494284768501497e+00 1.1506624473098693e+01 7.7893326583066331e+00 1 -1 1
173 2 1.8593683810973078e+00 1.3152369258936982e+01 7.3811235146124989e+00 1 -1 -2
174 2 1.5477642059988741e+00 1.4684917597072594e+01 7.2523444034847957e+00 1 -1 -2
172 1 2.2511908956538353e+00 1.4024882944939481e+01 7.0620609638781522e+00 1 -1 -2
185 2 2.9874735537030399e+00 1.4251587131399802e+01 5.4182962296716886e+00 -2 0 0
273 2 2.5555148259510365e+00 1.4212683774639640e+01 9.2454776667717375e+00 0 2 0
255 2 5.3249523013297018e-01 1.1191760681738987e+01 8.0240285019900863e+00 1 -1 1
77 2 5.8231274958621668e+00 1.0613953814198023e+01 4.9467216059241181e+00 -2 -2 1
285 2 4.7862217548645551e+00 1.0547032912137393e+01 7.0448860166851368e+00 0 0 1
180 2 6.8624270843634827e+00 1.4984115435725620e+01 6.2865118664322273e+00 0 1 1
101 2 4.8713534090841710e+00 1.4456135700550153e+01 7.5817629654367682e+00 1 -1 3
102 2 5.9427140710407569e+00 1.4490295623373168e+01 8.6860691747066987e+00 1 -1 3
100 1 5.7882902186690934e+00 1.4167301037836040e+01 7.7218424151878500e+00 1 -1 3
32 2 5.9791020902402705e+00 1.2182828616677199e+01 7.7572130503050643e+00 -1 0 0
31 1 5.8816251254505767e+00 1.1329870584442858e+01 8.2324160421980075e+00 -1 0 0
33 2 6.7092447706534362e+00 1.0819807697122886e+01 8.1839589088848435e+00 -1 0 0
161 2 5.0577889182377334e+00 1.1936582486075359e+01 9.6647305244196033e+00 1 3 0
61 1 8.6870933132320154e+00 1.4232626521599016e+01 8.9792409888644755e+00 1 0 0
232 1 8.9567529493272993e+00 1.0486982700194527e+01 5.2720863049336115e+00 2 0 -1
147 2 1.0120567330273278e+01 1.5129782877412953e+01 8.8066850145724800e+00 -1 -1 0
107 2 9.5766314255156040e+00 1.1838758678893988e+01 6.4550444769000093e+00 -1 2 2
106 1 1.0168240694973196e+01 1.2410822849405644e+01 7.0106282142724536e+00 -1 2 2
108 2 1.0634182874775274e+01 1.3093088921604593e+01 6.4414198741692017e+00 -1 2 2
62 2 9.1580403237361345e+00 1.3467512593691797e+01 8.5867726977828021e+00 1 0 0
57 2 1.1676730653478483e+01 1.1371886709486535e+01 9.2664983555830318e+00 1 -2 -1
55 1 1.1716843558724662e+01 1.0958088588217542e+01 8.3920021049957008e+00 1 -2 -1
56 2 1.1089360228591541e+01 1.1545973726306066e+01 7.8986713722371977e+00 1 -2 -1
219 2 1.9923003015769791e+00 3.1266100639896379e+00 1.1617829110225376e+01 1 0 0
217 1 2.1389610383821354e+00 2.1861678847736963e+00 1.1343618302500335e+01 1 0 0
218 2 1.3029279686069886e+00 1.8446461922920754e+00 1.1552457322876332e+01 1 0 0
130 1 1.6779203651626060e+00 4.8318109816313557e+00 1.2142280660077297e+01 -1 -1 1
132 2 1.7386712353477909e+00 4.8246573050383805e+00 1.3153728770373920e+01 -1 -1 1
50 2 2.9651033580179580e+00 7.5055603301711427e-01 1.2144142338985176e+01 -1 0 -1
131 2 7.5250824981536890e-01 5.1072423001318663e+00 1.1898381393728990e+01 -1 -1 1
38 2 6.3255990504915083e+00 1.8984272585924380e+00 9.8806941812955458e+00 0 0 1
70 1 6.2426444891724504e+00 2.3032144077158634e-01 1.0339332662334382e+01 0 1 1
71 2 7.1841513529972936e+00 4.9087463713096463e-01 1.0608861872457855e+01 0 1 1
190 1 7.9618407618491407e+00 1.6068089590004733e+00 1.4190348677345515e+01 -1 0 -1
192 2 7.0397016872552998e+00 1.8578748688694136e+00 1.4495662884602066e+01 -1 0 -1
191 2 8.4461722230284444e+00 2.3936118233958283e+00 1.4442648160021264e+01 -1 0 -1
203 2 6.1451855721822231e+00 3.6245046763120081e+00 1.1282880447370342e+01 -2 0 -1
202 1 5.9973922230392409e+00 4.1903967347340707e+00 1.2002601979006954e+01 -2 0 -1
204 2 5.0982406427423754e+00 4.4071759990389854e+00 1.1851767698303256e+01 -2 0 -1
153 2 5.4106893820444428e+00 3.0937094590001681e+00 1.3976986740603198e+01 0 0 -1
2 2 7.9788955053404376e+00 1.2250230841298380e+00 1.2435211931755735e+01 -2 0 0
72 2 5.7654510304787134e+00 2.6383018462641417e-01 1.1226152988280539e+01 0 1 1
1 1 8.4060597069394554e+00 9.7586317582990012e-01 1.1591314302784678e+01 -2 0 0
112 1 1.2087842786472962e+01 6.6680456700052937e-01 1.4458834169158120e+01 -2 1 -1
74 2 1.2658431141774837e+01 7.4069079404581117e-01 1.2872916131224649e+01 0 2 -1
73 1 1.2837214697906745e+01 7.8862074979204588e-01 1.1914616514871803e+01 0 2 -1
177 2 9.6796118698755933e+00 1.9308830624976900e+00 1.1173587966910464e+01 1 1 0
176 2 1.0606896171986357e+01 3.1074583353408745e+00 1.0624836741989597e+01 1 1 0
175 1 1.0508987963446710e+01 2.1389107586026714e+00 1.0789413257880600e+01 1 1 0
53 2 1.0641313623571730e+01 4.6236424410536463e+00 1.2067904258949437e+01 0 1 -1
52 1 1.0395173075585515e+01 4.8214014431330332e+00 1.1170032212847136e+01 0 1 -1
75 2 1.2049224748360480e+01 1.1910939387942925e+00 1.1536807237953976e+01 0 2 -1
138 2 1.4990774803561728e+00 7.6570497588452726e+00 1.4472532767423402e+01 0 -1 -2
137 2 6.7011779578896702e-01 8.1263473211656585e+00 1.3334328346114621e+01 0 -1 -2
227 2 3.0480127264553669e+00 5.8007722595223754e+00 1.1261295379190670e+01 -2 0 0
122 2 3.3905916866894650e+00 8.7024369936603669e+00 1.4109595901824036e+01 0 -2 0
276 2 4.0841796056694673e+00 8.8586433731969763e+00 1.1684728423022200e+01 0 2 0
274 1 4.1297806532038273e+00 9.1645438421510015e+00 1.2576155810846071e+01 0 2 0
279 2 1.3064441552544892e-01 6.1391435733510047e+00 1.0023942950949909e+01 2 -1 0
136 1 6.5442830045331890e-01 7.3857227446803186e+00 1.4041965463494542e+01 0 -1 -2
226 1 4.0645942137518736e+00 5.9636268774502224e+00 1.1169328307091462e+01 -2 0 0
228 2 4.1552428939654202e+00 6.9192291142260443e+00 1.0930053933663281e+01 -2 0 0
127 1 4.4249787480854658e-01 9.2856742009373718e+00 1.2129911086015873e+01 1 1 -1
129 2 1.0179952983716891e+00 9.5310778192874750e+00 1.1392476971661399e+01 1 1 -1
224 2 7.4332556802038789e+00 1.0233790091596781e+01 1.4464625843736215e+01 1 2 -1
42 2 6.6022440274663561e+00 5.3566532889327387e+00 1.3369758206482675e+01 -2 1 -1
46 1 4.8979241241955807e+00 8.3974900666506400e+00 1.0019766639543928e+01 -1 0 0
59 2 7.9977661771353565e+00 7.2911056407148260e+00 9.9657511131196372e+00 2 0 0
40 1 6.9776527883940309e+00 5.8770657313127730e+00 1.4081679311022071e+01 -2 1 -1
111 2 8.3563937118432676e+00 6.9295884677378066e+00 1.2494598506674969e+01 -1 -1 0
275 2 5.1039931323791699e+00 9.2861281335176038e+00 1.2634906094739808e+01 0 2 0
189 2 1.2410437798494289e+01 6.2036313624553605e+00 1.3842981805247398e+01 -2 -1 -1
238 1 8.9820007264583666e+00 9.6946125807638062e+00 1.4323907775500821e+01 -1 1 2
187 1 1.1670276536414008e+01 5.4594879237995446e+00 1.3799012121279304e+01 -2 -1 -1
54 2 1.1162091685355538e+01 5.4599259457192737e+00 1.0991201242731137e+01 0 1 -1
188 2 1.0892284339831022e+01 5.7201364589570058e+00 1.4289194554508587e+01 -2 -1 -1
277 1 1.2667978604885640e+01 6.1866699506734992e+00 1.0925393035189600e+01 1 -1 0
109 1 8.7543827590744208e+00 7.0881866463547238e+00 1.1614771262627624e+01 -1 -1 0
278 2 1.2453830940416641e+01 7.1489602548559725e+00 1.1121497672460894e+01 1 -1 0
110 2 9.4581702240004262e+00 6.4273537900481204e+00 1.1464034596260436e+01 -1 -1 0
239 2 9.3890415655981307e+00 9.9241786397109806e+00 1.3519491896676147e+01 -1 1 2
44 2 1.0069285490494071e+01 8.9288482703224439e+00 1.1606896149219601e+01 0 1 -2
43 1 1.0638539182349696e+01 9.5799063222876590e+00 1.1958794195687997e+01 0 1 -2
128 2 1.2374304592297783e+01 9.4407396192544333e+00 1.2112237051946472e+01 0 1 -1
91 1 2.1271618406092534e+00 1.0457238453302011e+01 1.0187235676869594e+01 2 0 1
92 2 3.0449900319648280e+00 1.0669028587522373e+01 1.0469581641826210e+01 2 0 1
49 1 3.2222514417925963e+00 1.5225967492683761e+01 1.2242155340886811e+01 -1 -1 -1
281 2 1.2908097130629070e+00 1.0748670169928506e+01 1.3122846916181992e+01 1 0 0
201 2 2.2371769778944386e+00 1.4814958098113298e+01 1.3698112493736645e+01 0 0 -1
199 1 1.6849158570883624e+00 1.4847747508381946e+01 1.4485148331839959e+01 0 0 -1
271 1 2.6225972353209928e+00 1.3894136633213986e+01 1.0144054136135512e+01 0 2 0
280 1 2.0761573774361128e+00 1.1254136680888873e+01 1.3413278817514421e+01 1 0 0
272 2 1.7593611377497351e+00 1.3576088370357112e+01 1.0441989667091331e+01 0 2 0
282 2 2.7657362993006016e+00 1.0773223520928198e+01 1.2967147167905857e+01 1 0 0
51 2 3.0005038505392734e+00 1.4656860784921566e+01 1.1481563277012675e+01 -1 -1 -1
24 2 9.0711965915463066e-01 1.3039646551994043e+01 1.2621381618361866e+01 0 0 -1
162 2 3.8331934502708140e+00 1.2577594488434254e+01 1.0108690071630797e+01 1 3 0
22 1 4.7339158715727292e-01 1.3435579609953091e+01 1.1856347591710644e+01 0 0 -1
23 2 3.9213319613664177e-01 1.4373760282971372e+01 1.2028034521267926e+01 0 0 -1
27 2 4.7610201836103681e+00 1.4810360426019709e+01 1.3221460278567235e+01 0 0 0
25 1 5.7273924603887645e+00 1.4666953492623296e+01 1.3442530943152569e+01 0 0 0
223 1 6.5458717014009009e+00 1.0603735261679017e+01 1.4230219721041600e+01 1 2 -1
160 1 4.5062434700718654e+00 1.1959843033751429e+01 1.0406569050624920e+01 1 3 0
26 2 5.9117159998059776e+00 1.3781004125145319e+01 1.3057094684841246e+01 0 0 0
80 2 8.0396648455013331e+00 1.3363513673953452e+01 1.2090285221884049e+01 0 0 0
155 2 5.8380595486919447e+00 1.1870755456102895e+01 1.1562544949285279e+01 2 -1 0
156 2 6.2875126107524997e+00 1.1462350093838456e+01 1.2951054413930070e+01 2 -1 0
154 1 6.3860564950902683e+00 1.2205583003695416e+01 1.2290928729764712e+01 2 -1 0
3 2 8.6484092864030977e+00 1.5416894441948074e+01 1.1746795371748469e+01 -2 -1 0
63 2 8.4586059802155908e+00 1.3986683101830426e+01 9.8786996984008830e+00 1 0 0
259 1 1.0551858830608126e+01 1.3775186220676751e+01 1.4342162434645850e+01 0 -1 -2
113 2 1.1525638057296295e+01 1.5312993786416712e+01 1.4220627040750465e+01 -2 0 -1
45 2 1.0395491766105856e+01 1.0472979677341346e+01 1.1772027526253130e+01 0 1 -2
79 1 8.9190047701355155e+00 1.3743963255895984e+01 1.1885481011574797e+01 0 0 0
81 2 9.4338448220486413e+00 1.3796517904204638e+01 1.2725119946295685e+01 0 0 0
20 2 1.0343854605065459e+01 1.2916424109913741e+01 1.1302805015614052e+01 0 0 -2
19 1 1.1014257816471485e+01 1.2285860441746859e+01 1.1149618478400470e+01 0 0 -2
21 2 1.1815697403829532e+01 1.2766631483982941e+01 1.1479637155740999e+01 0 0 -2

Velocities

119 -1.4002905602242725e+01 5.9483229431109308e-01 4.2883783557959937e+01
120 -5.7991555961237422e+00 9.9991038524783349e+00 1.4291936193145760e+01
197 2.2320179461793515e+01 2.2894596692338633e+00 1.7223467581239245e+01
118 4.5620369770032898e+00 -1.4680463303054279e+00 -4.8793700329104400e-01
165 1.8073957839530301e+00 -6.8699527796465274e+00 -1.9405430815188296e+01
264 -1.4847339217988189e+01 -6.0815376309660483e+00 -3.1091559894730477e+01
262 -1.6967267652842768e+00 3.5244927694215016e+00 -3.0085514002820424e+00
263 1.2378023082949285e+01 2.0865606583501165e+01 -3.8861468692493109e+00
163 -4.7589132156646148e+00 4.3130761975494867e+00 2.7372883461486930e-01
196 -8.5460359987632095e-01 -7.6478686524002129e+00 -8.6853311153623536e-01
198 -1.3649556212051859e+01 1.1582532350275375e+01 1.1501605641482742e+01
164 -1.6502401903028719e+01 -3.5178777539859452e+00 7.3590695696652118e+00
288 -1.4806123271502644e+01 6.9069554358629617e+00 -2.0332407994522779e+01
152 5.5176802765573525e+00 1.8923307577643225e+01 1.3639381041481395e+01
220 -2.9765845560335129e+00 2.4209221659371107e+00 -3.9688838956329282e+00
222 -6.8545516528672463e+00 1.4344667751339058e+01 -2.4791300061924037e+01
221 2.4150356168971143e+01 -1.7803296527809234e+01 -5.8926812628627745e-01
236 2.1308186803118558e+00 7.8525608823342701e+00 -1.5341847426079078e+00
151 -3.1870926272294522e+00 3.1533215807091848e+00 1.0631168018624702e+00
287 -8.9138437442021647e+00 -1.4962700939343462e+01 1.7484933278698072e+01
181 2.8916597735558263e+00 2.8255936897284646e+00 -6.8170993127486552e+00
182 -7.6775712663823867e+00 9.6152216162970596e+00 2.5759643061498579e+01
125 -1.0287509296564142e+01 -7.6110227026639867e+00 -1.1409132663695098e+01
269 -2.0080396406953547e+01 -1.4420420501869329e+00 9.5196325954617116e+00
268 2.8352227135011914e+00 2.4113106356726539e+00 -1.0130706222714390e+00
166 3.0321447940712276e+00 -4.9411437534204161e+00 -1.8884733526839517e-01
168 4.8737101215491281e+00 7.3432790453861863e+00 -2.3303249410191125e+00
270 -9.4011868490875461e-01 -2.9560342862563811e+00 2.7973356027125359e+01
140 2.2392321045576473e+01 5.8750129498496282e+00 -7.5274501662316542e+00
139 -8.7757946117597569e+00 -7.3240904633296449e+00 -5.0272197711014002e+00
183 -3.2057292021859872e+01 -1.4963636343806097e+00 2.6716476436222123e+01
265 -3.1804213939145147e+00 9.6662707799816960e-01 1.7752022607707074e+00
267 1.4975884870945595e+01 -3.9925624365565930e+00 1.8707939264006914e+01
167 -1.9019904941220649e+00 4.1413963211087160e-02 -7.4889942443613522e-01
124 -1.6433380457442019e+00 3.3894843959458840e+00 4.0480317635510579e+00
126 1.6700463577947311e+01 2.8332321772598328e+00 7.5326164793535799e+00
114 3.3165075221790169e-01 -3.6460712939496012e+00 -2.3027824520182222e+01
286 -3.2098356488309445e+00 9.4957310901522485e-01 -8.6474909789164806e-02
121 4.7195472828470528e+00 -2.8466833213929426e+00 -2.7358754633285725e+00
99 1.5347235249914569e+01 1.2938800792701814e+01 3.9488809399593087e+01
123 -2.6819153457119079e+01 1.7101145556832662e+01 -4.5544194715914283e+00
98 2.3780444058329802e+00 -7.0939250271014229e+00 -4.6917872885899614e+00
97 -2.4531719300643284e+00 -1.8326080914496585e+00 3.2385262648313051e+00
36 -3.4474263497477211e+00 1.2209313054959010e+01 9.3591738063336349e-01
212 -5.5765987712712191e+00 1.4453921551075009e+01 1.2505366270011129e+01
67 -4.1262492000311273e+00 5.8665737571995202e-01 4.6587965067987280e+00
69 3.5394005433711484e+01 1.0151102534112990e+01 -1.6036814589727229e+01
225 -1.5971804016173131e+01 -2.0798307436785418e+01 -2.8735345967531728e+01
41 3.3073905578391475e+01 1.0282596317844384e+00 1.4557664070742562e+00
5 -3.2757910071654952e+00 -3.1457178494649209e+01 7.2702750123330837e+00
4 1.1032129025483849e-01 3.1756879055432581e+00 4.2075028525711637e+00
193 -2.6170840154229804e+00 -7.3839689012537564e+00 3.1379253124570945e+00
195 -9.2435892235957318e-01 -4.5524436362361620e-01 2.8354487025290258e+01
6 8.4297463708731097e+00 -6.2817065308846436e+00 -1.1552389907556909e+01
194 1.7224443923379521e+01 -2.2217305046061546e+00 -4.4779740609885081e+00
104 4.9134857900784317e+00 -2.7693672929185954e+01 5.1136287899528279e+00
103 -3.9495224931721586e+00 8.8011128032118719e+00 2.7003547366939817e+00
240 -3.4085879075037173e+00 -4.4687917205115610e+01 -8.5001605450715658e+00
186 -1.1482996355427083e+01 -1.6401646101692393e+01 1.4384545692689834e+00
65 6.8755497981528535e+00 -1.1248644514292664e+01 -2.4344946765877524e+00
94 1.7818786210864075e+00 -5.7373962042040505e-01 -3.9234846907364818e-01
95 -2.1487596196131168e+01 -1.4152852558915940e+01 7.1304909204840383e+00
64 -5.4436654231749388e+00 5.8009219657625630e+00 1.3190827278117341e+00
66 -2.7888218502438583e+01 1.6724919740517311e+01 -5.6916319522135765e+00
68 1.6860777041071024e+01 2.0693554536767358e+01 -1.1525151155208790e+00
96 2.5312471915763240e+01 -5.2640177098076091e+00 9.6577037035425946e+00
184 5.6686983738271870e+00 1.1038049540200638e+00 3.2210088264132124e+00
200 5.3533808329147323e+00 -9.7791480371577624e+00 2.3816691388454963e+01
251 -1.3833589426275964e+01 8.9073813509816695e+00 -1.9009114177047834e+01
207 -1.2380047906386665e+01 2.0177019625610599e+00 -1.2266016683229179e+01
234 -1.3290761492840916e+01 1.2540488575434555e+01 -9.5069968388091350e+00
250 -5.2799711949191224e+00 -2.3778087532101018e+00 8.4459855283069385e-01
171 4.3075744018553117e+01 8.7509910830942701e+00 1.8586429303355168e+00
169 5.3205439218049158e+00 -5.2660878818809644e+00 6.6825950221390942e+00
133 7.6871629256348486e+00 -3.2714710356328234e+00 -5.6755306097345413e+00
135 3.9404329111301067e+01 -1.3248907809046653e+00 -2.7168227423832729e+01
170 -4.4630775031724156e+01 2.5327772589695822e+01 1.7910695409662583e+01
252 -2.6778854150111382e+01 -1.6487891213925607e+01 -2.0498255310661722e+00
76 4.6378976134897512e+00 1.8409119917383494e+00 -5.5611058405608880e+00
78 4.3887778473640227e+00 -2.2954231375726600e+01 -9.9251547156775981e+00
134 2.6158584338707644e+01 1.1019283448556388e+01 -8.0665296601132024e+00
205 2.7019308999915648e+00 -3.1379908623632131e+00 6.6623811394294230e-01
206 -3.0712279637214706e+01 8.4378518405784531e-01 -1.0573407295413253e+01