LAMMPS data file via write_data, version 15 Apr 2020, timestep = 2000000

288 atoms
2 atom types

2.6403865250158809e-02 1.3145841634749884e+01 xlo xhi
3.1464934853931759e-02 1.5665624965145501e+01 ylo yhi
2.9385922588855529e-02 1.4630535377412498e+01 zlo zhi

Masses

1 15.9994
2 1.00794

Atoms # atomic

142 1 1.2738492474819034e+00 1.6146577066370664e+00 3.2921091926336792e+00 1 0 1
144 2 2.0976355654381682e+00 1.2178579906349234e+00 2.8758751606352071e+00 1 0 1
204 2 2.2804468580366777e+00 4.5650893555677943e+00 2.6963475409605588e+00 -1 1 2
202 1 1.3630078595455744e+00 4.2802524972548621e+00 2.5302968830859314e+00 -1 1 2
203 2 1.2576573548611532e+00 3.3311761164584621e+00 2.7070078885729094e+00 -1 1 2
143 2 1.5492962754802979e+00 1.6408654280207515e+00 4.3117660461810337e+00 1 0 1
32 2 1.0862367205506112e+00 4.1764751761760284e+00 7.1898907220800357e-01 0 -2 0
232 1 3.4465421001788110e+00 1.2349485845505015e-01 2.2677377363583573e+00 0 1 0
153 2 3.8781635622739237e+00 7.6784709553755559e-01 6.1312603217881301e-01 -1 2 0
234 2 4.1541312019514667e+00 2.6256012494282266e-01 2.9136982490604706e+00 0 1 0
78 2 4.6375252166472078e+00 5.2274877502943680e+00 2.7454910413469698e+00 -1 0 -1
282 2 6.6185380270789622e+00 4.5518234018910348e+00 2.5955523061282677e+00 0 0 0
280 1 5.8442985560702381e+00 4.2210124306170549e+00 2.1274927626935174e+00 0 0 0
140 2 5.4788398347014660e+00 2.3376849689632402e+00 3.0881135691023500e+00 0 0 0
139 1 5.3854403605774470e+00 1.4908358479810440e+00 3.5580095602067909e+00 0 0 0
141 2 5.6594588877880314e+00 1.7090603649590093e+00 4.5239268872349347e+00 0 0 0
48 2 6.8048877623481161e+00 7.8816218031170215e-01 2.8686883039514344e+00 0 1 1
281 2 5.8216703898181992e+00 4.2435864470937066e+00 1.1379868818332526e+00 0 0 0
46 1 7.6631547353165193e+00 3.6705316790305947e-01 2.5184202891313370e+00 0 1 1
110 2 7.7319463647219679e+00 4.2836162421470803e-01 1.0333781364602572e+00 -1 1 0
47 2 8.4910231366434132e+00 8.0260405781397148e-01 2.8704044202035583e+00 0 1 1
84 2 8.0556557538121147e+00 5.2330338328358375e+00 4.3585734433442385e+00 -1 1 1
200 2 1.2987196633977781e+01 7.5148783241226413e-01 2.4859649829368609e+00 1 -1 0
95 2 1.3122534588086744e+01 5.1555552560001612e+00 3.2854893989337648e+00 0 -1 2
9 2 9.5031478891078436e+00 4.9797774279248239e+00 2.9194434979484885e+00 -2 1 -1
7 1 1.0162096188315413e+01 4.4447406238979337e+00 2.3601704018920446e+00 -2 1 -1
191 2 1.0298075554304138e+01 2.4365577209661384e+00 2.6011270883666500e+00 -1 1 0
190 1 1.0172020349865790e+01 1.5378352267161093e+00 3.0091784169349265e+00 -1 1 0
192 2 1.0955993500710694e+01 9.8004965470579208e-01 2.6752568067507374e+00 -1 1 0
134 2 1.0132116340225032e+01 4.8199525887186363e+00 6.1293816032932802e-01 1 0 2
8 2 1.0985581501691208e+01 4.8763928266143193e+00 2.6600259160298969e+00 -2 1 -1
201 2 1.2228231652134880e+01 8.1010372934147756e-02 1.2973078427988796e+00 1 -1 0
199 1 1.2193183614935283e+01 1.9144879121394354e-01 2.2472443296816413e+00 1 -1 0
44 2 1.0388598120287810e+01 1.8386398566190636e+00 4.4758011480145452e+00 -1 1 -1
77 2 3.7311271458954112e+00 5.4633031986300402e+00 3.9745970166529330e+00 -1 0 -1
76 1 3.7512506544778019e+00 5.6250303546720808e+00 3.0162150713965867e+00 -1 0 -1
156 2 2.7934185543392118e+00 8.4925569402781136e+00 2.6305084998572119e+00 0 0 0
208 1 1.3021108461630986e+00 9.2079369891596912e+00 3.3311946743045118e+00 0 -1 2
154 1 3.6523717378877154e+00 8.1342811829187447e+00 2.3896149891556870e+00 0 0 0
155 2 3.6158336182516928e+00 7.1529983694738952e+00 2.5048926491560528e+00 0 0 0
210 2 4.5543481770453359e-01 8.7076876329428572e+00 3.5137637755727935e+00 0 -1 2
131 2 3.6908472472644949e+00 8.5739701446954619e+00 8.8461951525842986e-01 -1 -1 3
209 2 1.0217137625834114e+00 1.0079182352108585e+01 2.8099991634168568e+00 0 -1 2
82 1 7.9304697335599910e+00 5.3436458146105057e+00 3.4077684470129439e+00 -1 1 1
221 2 4.7680299770116985e+00 8.9808327972441866e+00 2.7933920912215684e+00 1 0 1
220 1 5.5909551206523060e+00 9.5020666219816157e+00 3.0283134326470940e+00 1 0 1
89 2 6.8998029751023129e+00 8.4616348428800769e+00 2.7861986216421419e+00 0 0 0
88 1 7.6977681190396909e+00 7.9506911129150977e+00 2.4542779473052110e+00 0 0 0
90 2 7.6501918220580976e+00 7.9473447387217373e+00 1.4840159375583739e+00 0 0 0
83 2 7.8103014444482692e+00 6.3234118694056267e+00 3.1822147819488040e+00 -1 1 1
222 2 5.3823663734742011e+00 1.0419545725275835e+01 2.7355325893455356e+00 1 0 1
182 2 5.5229900212019007e+00 9.5627256615749516e+00 4.7616702764671732e+00 -2 0 0
94 1 1.2269640013158163e+01 5.5650591705537558e+00 3.4268930596804115e+00 0 -1 2
54 2 8.9654391557733568e+00 9.2127484610491166e+00 2.7775470738582113e+00 1 -2 2
52 1 9.7711767337249498e+00 9.6870373035822936e+00 3.2053913163850964e+00 1 -2 2
96 2 1.2325049034454345e+01 6.4733265750446103e+00 3.1051274610064734e+00 0 -1 2
180 2 1.2062918213967833e+01 8.3125661798006369e+00 1.4669806036175554e+00 1 0 0
178 1 1.1858515275633103e+01 8.3311787088199623e+00 2.4964130924821810e+00 1 0 0
179 2 1.1086505762948804e+01 8.8730294881890366e+00 2.6168861235236589e+00 1 0 0
19 1 8.2021797613050063e-01 1.1603756099284112e+01 2.0637479235897880e+00 -1 1 0
20 2 1.2032306484274149e+00 1.1892892361855729e+01 1.2062816143093504e+00 -1 1 0
185 2 2.4187549714706842e+00 1.2590217642246071e+01 3.0975073215953626e+00 -2 0 1
184 1 3.1971983859723374e+00 1.3106443054848121e+01 3.3535189271894033e+00 -2 0 1
21 2 6.0831132292162818e-02 1.2180478659787585e+01 2.2636005356278592e+00 -1 1 0
186 2 3.3011318897254323e+00 1.3296405992445191e+01 4.4233685897193693e+00 -2 0 1
233 2 3.1033029035556914e+00 1.4865650326650993e+01 2.3936695404783586e+00 0 0 0
87 2 4.3934558229362075e+00 1.2532984089656587e+01 2.3957420744127953e+00 0 0 0
86 2 5.8910093543960480e+00 1.2755929320301593e+01 2.5035898457809607e+00 0 0 0
85 1 5.2563331623553662e+00 1.2181973152755056e+01 2.0412413349807759e+00 0 0 0
262 1 7.6250358476208024e+00 1.3363175204347385e+01 3.1134744029820056e+00 0 -1 2
264 2 7.7172108876879051e+00 1.3280640416418780e+01 4.0931539071179559e+00 0 -1 2
263 2 7.6229482015729166e+00 1.4343691406752299e+01 2.9168017878352712e+00 0 -1 2
255 2 6.3605439214257702e+00 1.2092768702888073e+01 6.0749774638992471e-01 0 -1 1
53 2 9.7380985437323204e+00 1.0556778602989620e+01 2.7376778668144470e+00 1 -2 2
174 2 8.8735884294790637e+00 1.2415536223774438e+01 1.9228239081319201e+00 -1 0 0
172 1 9.6761696058181279e+00 1.1930791812692540e+01 1.7089209375395005e+00 -1 0 0
173 2 1.0297308044866803e+01 1.2577304188478276e+01 2.1548317909939003e+00 -1 0 0
259 1 1.1815644101393943e+01 1.3247332201159402e+01 2.9239575188771720e+00 -1 1 1
261 2 1.1987931801189514e+01 1.4224981606999894e+01 2.8566093892872146e+00 -1 1 1
260 2 1.1811635345287264e+01 1.3189161572539408e+01 3.9162163159815062e+00 -1 1 1
166 1 1.6856676517305558e+00 1.3723466746684747e+00 6.0141833086115897e+00 1 -1 1
168 2 1.6361975686361891e+00 2.3170056905145753e+00 6.3758626940290650e+00 1 -1 1
167 2 2.5428892288565272e+00 9.8964405167860181e-01 6.2459794204026400e+00 1 -1 1
39 2 1.6279701009682779e+00 3.8292116444155146e+00 7.9270304896255919e+00 0 0 0
37 1 1.5853248485364981e+00 4.0790420936158069e+00 6.9733295459292028e+00 0 0 0
38 2 7.6900851277990157e-01 4.5746095801853501e+00 6.7308901435587778e+00 0 0 0
270 2 2.8084271024738219e+00 4.9184152741522587e+00 6.3321907459123494e+00 2 0 0
177 2 3.6960649348094696e+00 2.3658907768786530e-01 7.9685292783001591e+00 1 2 2
269 2 4.3114166646321026e+00 4.9357081551470934e+00 6.2718595475154784e+00 2 0 0
17 2 3.2689134880631360e-01 5.5622205393766433e-01 6.5538126160184351e+00 0 1 -1
175 1 3.8894732378934860e+00 1.3535853304839851e-01 6.9938497054495610e+00 1 2 2
176 2 4.7071220425683062e+00 5.7070486820041899e-01 6.7673017678276235e+00 1 2 2
226 1 5.7530542950717987e+00 1.6938018602225255e+00 6.1255347965737492e+00 -1 0 0
228 2 5.6179120651722299e+00 2.5526063752232391e+00 6.6136532934224102e+00 -1 0 0
266 2 5.5429775634436407e+00 4.2243559754962483e+00 8.2836549040821019e+00 -1 -2 -1
265 1 5.7248105150038207e+00 4.0787220076960988e+00 7.2839531217659319e+00 -1 -2 -1
227 2 6.6326755474929762e+00 1.3577767670958605e+00 6.3651747623281603e+00 -1 0 0
267 2 6.6454754119293389e+00 4.4605958378161592e+00 7.1498162763918875e+00 -1 -2 -1
214 1 8.1975173181520944e+00 7.6583110356349993e-01 6.6673296975995884e+00 0 0 2
28 1 8.0347030541288262e+00 3.0594511976384803e-01 9.2722387279838188e+00 1 0 0
30 2 7.2099898131987379e+00 7.0538024198857419e-01 9.7306895566064178e+00 1 0 0
216 2 8.3804748838318517e+00 6.3084218545266824e-01 7.6266102224732366e+00 0 0 2
124 1 8.1168820004114686e+00 5.2319124886930055e+00 6.2112576964008719e+00 -2 0 0
215 2 9.0134402824879025e+00 1.1617563709845982e+00 6.2462593679833818e+00 0 0 2
125 2 8.9064781187250333e+00 4.7329136388187010e+00 6.5233083406674304e+00 -2 0 0
35 2 1.0698390520691675e+01 3.6677424915958188e+00 8.0166428422324341e+00 -1 0 1
34 1 1.0484379801486288e+01 4.0205147392926799e+00 7.1206845847178153e+00 -1 0 1
43 1 1.0604792921536681e+01 2.0053970290486771e+00 5.4333754644107044e+00 -1 1 -1
45 2 1.1322513162612346e+01 1.4603068554749987e+00 5.7800780869577011e+00 -1 1 -1
36 2 1.0295960008272438e+01 3.2771267572273839e+00 6.5121576936815737e+00 -1 0 1
18 2 1.2360139226137253e+01 4.8815355439263186e-01 7.8134870299055672e+00 -1 1 -1
16 1 1.2574541693620969e+01 1.8438027075769925e-01 6.8974709798444342e+00 -1 1 -1
98 2 1.1863387333594638e+01 4.8767038526069229e+00 6.4267896986353454e+00 0 1 -1
150 2 1.2847132949325406e+00 9.2082615281268190e+00 5.1982224720847334e+00 0 1 1
268 1 3.5379172032206267e+00 5.4340723771601054e+00 5.9042215887576948e+00 2 0 0
148 1 1.4175606710706230e+00 9.2411003781178351e+00 6.1145870861925848e+00 0 1 1
149 2 2.2021528992178956e+00 8.6758999068131892e+00 6.2337333757473665e+00 0 1 1
102 2 3.2913555327732316e+00 8.0741673222269661e+00 8.8639442594967299e+00 2 0 2
160 1 3.4610659377641686e+00 7.9640495002699812e+00 6.7440796875950326e+00 2 1 0
162 2 3.5088126288967771e+00 7.0195722220507513e+00 6.4770933967930846e+00 2 1 0
242 2 1.3036382842043537e-01 8.3665081349020305e+00 6.5745852777592457e+00 1 0 2
161 2 4.2465117671899915e+00 8.4039482353575750e+00 6.3264439026382577e+00 2 1 0
181 1 5.4685231939551500e+00 9.4742444515356468e+00 5.7723334107938058e+00 -2 0 0
183 2 6.3085046988222713e+00 9.1390744991635593e+00 6.0871614043711215e+00 -2 0 0
49 1 7.6631809895360403e+00 8.0650050152577037e+00 6.5969646128284980e+00 -1 -1 1
126 2 8.2747194829313671e+00 6.1428043041130982e+00 6.3580290145062142e+00 -2 0 0
51 2 7.7956906497172005e+00 8.0686106061702851e+00 7.5673287432597096e+00 -1 -1 1
169 1 8.1002181817308951e+00 7.6918745336690399e+00 9.2701249929444494e+00 0 -1 -2
171 2 8.0381968100974710e+00 6.7569334285330092e+00 9.5389849477370703e+00 0 -1 -2
50 2 8.4596789072364587e+00 8.5473156225186422e+00 6.2412976749985845e+00 -1 -1 1
99 2 1.2436976863640105e+01 5.5198002923650824e+00 5.1164304143841663e+00 0 1 -1
97 1 1.2652211106415852e+01 5.3425126430776260e+00 6.1064083993485143e+00 0 1 -1
138 2 1.0009201930576115e+01 9.5655597794377876e+00 5.0358259084382748e+00 3 0 1
241 1 1.2366330464903957e+01 8.0628022217877522e+00 6.8526370310529119e+00 0 0 2
243 2 1.2326616115863740e+01 7.0719258509004330e+00 6.7158141433952281e+00 0 0 2
137 2 1.0900672720680074e+01 8.9101482823694553e+00 6.2578472468273612e+00 3 0 1
136 1 1.0073976671314490e+01 9.4023843062908021e+00 6.0360363043685856e+00 3 0 1
278 2 1.2270329145893566e+01 7.9380620675889526e+00 8.6221185200340109e+00 1 0 0
277 1 1.2147073776062832e+01 7.9888198782087647e+00 9.5389246806584147e+00 1 0 0
170 2 8.8396787841339659e+00 8.1727061755101715e+00 9.6328664714039327e+00 0 -1 -2
26 2 1.5500877877052552e+00 1.0911755058025648e+01 6.2803960949224455e+00 1 -2 0
27 2 2.2833232265865688e+00 1.2285464237691606e+01 6.2138954708991578e+00 1 -2 0
25 1 1.4520127231577304e+00 1.1875728013387370e+01 6.5596903224584207e+00 1 -2 0
63 2 1.8263792086494828e+00 1.2206271644595208e+01 8.4677554475499477e+00 1 0 0
66 2 3.6735194389056880e+00 1.4316028093546947e+01 6.0406329068546416e+00 1 -1 0
64 1 3.6970626780658296e+00 1.3396802040262653e+01 5.7827773507439550e+00 1 -1 0
61 1 1.8123489467627505e+00 1.2114038789034971e+01 9.4356909841877510e+00 1 0 0
250 1 3.6331812001432544e+00 1.5637885201692546e+01 9.7029780572224453e+00 0 -1 0
65 2 4.4042750752335049e+00 1.2924804293221694e+01 6.2249998370073909e+00 1 -1 0
93 2 5.6816762700926224e+00 1.1178593545521156e+01 6.5077214167692405e+00 -1 0 0
73 1 7.8772011792745209e+00 1.3552178084629020e+01 6.3003218263282061e+00 0 -2 0
91 1 5.7007668833393623e+00 1.2087491584778277e+01 6.8370810218118274e+00 -1 0 0
92 2 6.5527011476142150e+00 1.2486314227797877e+01 6.5382043587636334e+00 -1 0 0
107 2 5.6037892260509903e+00 1.2135501944164151e+01 8.7265696954297560e+00 1 1 0
75 2 8.1098581344723613e+00 1.4443014401513306e+01 6.5335053078829741e+00 0 -2 0
74 2 8.6126235535595619e+00 1.2948504767473153e+01 6.5825797417598828e+00 0 -2 0
29 2 8.1610069816240198e+00 1.5021434330245381e+01 9.6214408691141884e+00 1 -1 0
106 1 5.8578818400152759e+00 1.2069437165109683e+01 9.7006842424843178e+00 1 1 0
42 2 1.2937554840422454e+01 1.2713916098583219e+01 6.2696022137582350e+00 1 0 1
246 2 9.9993927068088624e+00 1.1046715764421339e+01 6.5555780064242626e+00 1 0 1
41 2 1.2487846503724597e+01 1.4292684133593795e+01 6.2984912648460734e+00 1 0 1
40 1 1.2310260434499412e+01 1.3368894791304456e+01 5.9297558206613639e+00 1 0 1
23 2 1.0022862551198095e+01 1.1740092646219701e+01 8.6795959763953228e+00 0 -1 0
245 2 1.0762817469910171e+01 1.2379463853521973e+01 6.7912329504234688e+00 1 0 1
244 1 9.9610853497485792e+00 1.1901448427786470e+01 7.0253585790592306e+00 1 0 1
22 1 1.0077534992231534e+01 1.1678806056235359e+01 9.6920179881573567e+00 0 -1 0
67 1 1.4872919650210934e+00 3.8292974521102705e+00 9.8460313198244691e+00 1 0 -1
69 2 2.1718267668366456e+00 4.4130878332364611e+00 1.0170522709126107e+01 1 0 -1
68 2 6.3078731265483556e-01 4.2599046212351466e+00 1.0071729573904982e+01 1 0 -1
252 2 2.9386357662794493e+00 5.0404812597965842e-01 1.0150599396480395e+01 0 0 0
14 2 1.4908191740780932e+00 2.2255649689638637e+00 1.0743012105454106e+01 0 0 0
31 1 1.3373632827911626e+00 4.2880860378787098e+00 1.4418947390004167e+01 0 -2 -1
56 2 2.0275355315186627e+00 1.3442744349409181e+00 1.3961931465505387e+01 1 1 0
57 2 1.2942266317756750e+00 2.7453515869354264e+00 1.3817316254272829e+01 1 1 0
13 1 1.3988432543583158e+00 1.2641987307421547e+00 1.1038819129938126e+01 0 0 0
15 2 1.3650125504837025e+00 1.3057209793670668e+00 1.2035403338079302e+01 0 0 0
55 1 1.1935735042604585e+00 1.7668085711527255e+00 1.3705548911711578e+01 1 1 0
33 2 6.5518523652009963e-01 4.5836598571048670e+00 1.3850148385803163e+01 0 -2 -1
60 2 4.1191995556549510e-02 4.5470798707222687e-01 1.0423050053333803e+01 -2 2 0
151 1 3.7439412630001354e+00 7.7727911143250983e-01 1.4256418589336594e+01 -1 2 -1
109 1 7.9170936772502944e+00 4.8290627261288260e-01 1.4621757031452223e+01 -1 1 -1
10 1 5.2230182008707944e+00 4.1955886739084933e+00 9.8575702245795824e+00 0 1 0
12 2 4.6747592721199309e+00 4.8727731806169583e+00 1.0244187460112183e+01 0 1 0
251 2 4.5151244711425997e+00 4.9776599792599019e-01 1.0056222888177693e+01 0 0 0
11 2 6.1654019827725088e+00 4.4354963820915332e+00 1.0075787153538453e+01 0 1 0
286 1 5.5387219085158863e+00 4.5227922292022811e+00 1.4118735580283211e+01 -1 0 0
189 2 5.6283977353630483e+00 2.2948497620492074e+00 1.0092195197140505e+01 -1 0 1
104 2 5.1702606582808217e+00 1.4849592181844768e+00 1.3529879051703830e+01 1 1 0
288 2 5.5261361167210330e+00 3.6718124629066087e+00 1.3729828134898309e+01 -1 0 0
187 1 5.9378820306196340e+00 1.4558835725530443e+00 1.0438282244723183e+01 -1 0 1
188 2 6.0682376257145165e+00 1.5339265303029768e+00 1.1435858069644201e+01 -1 0 1
105 2 6.7097057194610956e+00 1.4650942117225447e+00 1.3756884670029891e+01 1 1 0
103 1 6.0483416719704994e+00 1.8718922189259326e+00 1.3168637222328968e+01 1 1 0
287 2 6.2520791963225602e+00 5.0551253893281194e+00 1.3611859554982988e+01 -1 0 0
230 2 8.6078659563729616e+00 4.6020329650759004e+00 1.0041914702521648e+01 -2 1 -2
229 1 7.7245045312572449e+00 4.9600873286273455e+00 1.0315489904593434e+01 -2 1 -2
118 1 1.0427159299720792e+01 3.8209211157026526e+00 9.7795628986285372e+00 0 1 0
129 2 8.7742239206682413e+00 5.1122716113559825e+00 1.3327688958594688e+01 0 1 -1
58 1 1.2344912559852151e+01 1.3497510583674455e-01 9.8727998108874324e+00 -3 2 0
275 2 1.2720858916001557e+01 7.2616027626270074e-01 1.3827217242788574e+01 0 1 -1
120 2 1.0555361411860474e+01 3.0398750960642058e+00 1.0341828681178988e+01 0 1 0
248 2 9.4547771010291619e+00 9.7935230725086653e-01 1.0321511010767505e+01 1 2 0
249 2 1.0971055131993140e+01 6.9320077859666429e-01 1.0529293132210800e+01 1 2 0
119 2 1.1197194935052362e+01 4.4018593623934432e+00 1.0088638223444804e+01 0 1 0
197 2 9.1423587913437920e+00 1.5787182907096511e+00 1.3817437360712457e+01 0 0 -1
133 1 1.0267659487860108e+01 4.6185504929688097e+00 1.4272561771099365e+01 1 0 1
135 2 1.0179299376223341e+01 3.6310005188001995e+00 1.4171565698191763e+01 1 0 1
247 1 1.0233525395912430e+01 1.2985102205776977e+00 1.0882160216119676e+01 1 2 0
196 1 9.9403212419676237e+00 1.9553054352883252e+00 1.3496625623097387e+01 0 0 -1
276 2 1.1132642877950811e+01 8.3718002395642466e-01 1.3889434173352630e+01 0 1 -1
198 2 1.0026698490702714e+01 1.8544106576558586e+00 1.2574193187962894e+01 0 0 -1
274 1 1.1895401274479916e+01 2.1863894626640240e-01 1.4000160017740981e+01 0 1 -1
100 1 3.2051312121853117e+00 8.1931618323953650e+00 9.7935544064271660e+00 2 0 2
101 2 2.4036888378548067e+00 8.7329721665215274e+00 9.9804835456510617e+00 2 0 2
146 2 2.5983954742927184e+00 5.4903974425912114e+00 1.4052571120517889e+01 1 0 -2
147 2 4.1386464115826262e+00 5.5803428338711711e+00 1.3793025642081986e+01 1 0 -2
163 1 3.1695807114427428e+00 5.7060413822164140e+00 1.0618992467689285e+01 0 1 0
164 2 3.1224789085126989e+00 5.6851645568444411e+00 1.1602697864698712e+01 0 1 0
130 1 3.6606093226074257e+00 8.5741389285637446e+00 1.4500841731625375e+01 -1 -1 2
145 1 3.3081808486923108e+00 6.0558971080598427e+00 1.3658977557999037e+01 1 0 -2
165 2 2.9708374604202445e+00 6.6654918891082442e+00 1.0307983949200889e+01 0 1 0
157 1 8.9723350694546988e-01 9.6955945497655662e+00 1.0602814545216660e+01 0 -1 0
158 2 9.1363758543990270e-01 9.6714084058600669e+00 1.1569265288071087e+01 0 -1 0
6 2 2.1874157528817020e+00 8.9883384977707870e+00 1.3664347753556605e+01 0 -1 0
4 1 1.3680134655684821e+00 9.5214950207286932e+00 1.3401303210722578e+01 0 -1 0
132 2 3.4565079526875500e+00 7.6266820733406098e+00 1.4284249534850947e+01 -1 -1 2
127 1 7.9900781853665555e+00 5.4513378305595017e+00 1.2847355788847715e+01 0 1 -1
231 2 7.8725714730264249e+00 5.2478696081154501e+00 1.1265143784940133e+01 -2 1 -2
217 1 7.9349078991608293e+00 7.9804124375923458e+00 1.4406689319683185e+01 1 0 -2
218 2 7.0922322439824255e+00 8.3985122460293198e+00 1.4092112798074766e+01 1 0 -2
206 2 4.9657603119011489e+00 8.9481803908922117e+00 1.0496832778838833e+01 0 0 -1
207 2 6.5348239946456603e+00 8.8078675122237726e+00 1.0294536398058110e+01 0 0 -1
212 2 5.1421891808986731e+00 9.0214118557519711e+00 1.3754702326699121e+01 0 0 0
205 1 5.8478164231598644e+00 9.3525773147612483e+00 1.0705837456089526e+01 0 0 -1
213 2 5.9942693718740987e+00 9.3483321176558185e+00 1.2388102074407655e+01 0 0 0
211 1 5.9886851272742181e+00 9.3515119118868313e+00 1.3379218002472918e+01 0 0 0
128 2 7.9507966521136080e+00 6.3496543803567658e+00 1.3224655168777659e+01 0 1 -1
219 2 8.6663919543070236e+00 8.5115561514777269e+00 1.4093512786189443e+01 1 0 -2
279 2 1.2822812965479333e+01 8.6293799311428288e+00 9.9283247126924969e+00 1 0 0
194 2 1.3135336429535156e+01 8.9481669139391435e+00 1.4073126167482005e+01 -2 0 0
80 2 1.0230857127280871e+01 1.0099589306989699e+01 1.0159318801268636e+01 -2 -1 -1
72 2 1.1678502724692297e+01 5.3345369085304286e+00 1.3480243697171197e+01 0 1 -1
225 2 1.2298487856064884e+01 5.5345094349490829e+00 1.1529903789214089e+01 -1 1 -1
223 1 1.2465547445986907e+01 5.5225328831950176e+00 1.0562932110128628e+01 -1 1 -1
193 1 1.2454109833903161e+01 8.3504270171878154e+00 1.4488844367707756e+01 -2 0 0
70 1 1.2458311995615325e+01 5.8654005204394108e+00 1.3161958151061938e+01 0 1 -1
71 2 1.2412695434473324e+01 6.6939505027379580e+00 1.3636985478682639e+01 0 1 -1
81 2 1.0874026286521246e+01 8.7343041783720423e+00 1.0087057560307922e+01 -2 -1 -1
224 2 1.2440967052892891e+01 6.5081455114075348e+00 1.0320088355868297e+01 -1 1 -1
79 1 1.0139183154216713e+01 9.2151592144005470e+00 1.0523594244072584e+01 -2 -1 -1
195 2 1.1582265121650995e+01 8.6506896269779467e+00 1.4085308827889087e+01 -2 0 0
116 2 1.0288280396543154e+01 9.2706136673821007e+00 1.2287239167169680e+01 -2 0 0
115 1 1.0378725848214401e+01 9.2256407003971681e+00 1.3242562979899066e+01 -2 0 0
117 2 1.0511571335848885e+01 1.0203600968749228e+01 1.3434304217028963e+01 -2 0 0
62 2 2.6446669698762824e+00 1.2585867640715538e+01 9.8738174386263289e+00 1 0 0
5 2 1.5809948224870678e+00 1.0486616704216164e+01 1.3725439876682159e+01 0 -1 0
159 2 1.2536343714149660e+00 1.0550084566351476e+01 1.0260550896430377e+01 0 -1 0
238 1 1.6204107797595144e+00 1.2057065582760444e+01 1.4106899313338825e+01 2 0 -1
113 2 3.7693572865350173e+00 1.4044604852082109e+01 1.0336087115770084e+01 0 -1 0
152 2 3.9588166503498994e+00 1.5476799875560129e+01 1.4048390894460695e+01 -1 1 -1
239 2 2.4081820671980840e+00 1.2619887229682643e+01 1.4129753645939893e+01 2 0 -1
112 1 3.7156139723924135e+00 1.3151420231853660e+01 1.0716471180606884e+01 0 -1 0
284 2 3.7259593576314725e+00 1.3464272772585431e+01 1.2532423442360681e+01 1 0 0
283 1 3.7557954437976471e+00 1.3665692911284843e+01 1.3491774235003263e+01 1 0 0
240 2 8.5989575798778450e-01 1.2652702700108147e+01 1.3821526101263359e+01 2 0 -1
254 2 6.2603477158144392e+00 1.1106788584077631e+01 1.3953896017106903e+01 0 -1 0
114 2 4.5693817593250188e+00 1.2653609228764026e+01 1.0457686343233448e+01 0 -1 0
285 2 4.4229873803506559e+00 1.3046706719735468e+01 1.3820226630938429e+01 1 0 0
258 2 7.3938914676130141e+00 1.2789624117785728e+01 1.0029358037404823e+01 0 0 0
108 2 5.7615744783900205e+00 1.1091308246376478e+01 9.9467417477702327e+00 1 1 0
253 1 6.4159345985947178e+00 1.2045775484482480e+01 1.4216978908147727e+01 0 -1 0
111 2 8.0822784071819953e+00 1.5259578923960209e+01 1.4152719620319733e+01 -1 0 -1
256 1 8.1518540595907538e+00 1.3316798171609534e+01 1.0395329467483982e+01 0 0 0
273 2 7.5971864460364626e+00 1.3217890186088411e+01 1.3685066162818824e+01 1 0 -2
272 2 7.9768387938000078e+00 1.3675950778143317e+01 1.2290219900540588e+01 1 0 -2
271 1 8.2448240472263521e+00 1.3786496839249505e+01 1.3210001391759665e+01 1 0 -2
2 2 1.0266380510892876e+01 1.1929652626711238e+01 1.4567157847019924e+01 -2 -1 -1
257 2 8.8717158331786834e+00 1.2775308949508091e+01 1.0063223169396618e+01 0 0 0
123 2 1.3122827273399560e+01 1.2670318956076201e+01 9.9361173460678103e+00 -2 -2 0
24 2 1.0869863701127318e+01 1.2179063648054612e+01 1.0040907393794413e+01 0 -1 0
59 2 1.2438818351382249e+01 1.4784113041418749e+01 9.8884903554427730e+00 -3 1 0
3 2 9.8528098872393066e+00 1.2622999312937363e+01 1.3271996237783281e+01 -2 -1 -1
1 1 1.0551169461149424e+01 1.2067934224582125e+01 1.3676276985379157e+01 -2 -1 -1
236 2 1.2335242439679522e+01 1.4423967894150667e+01 1.3208227388711471e+01 -1 1 0
121 1 1.2273175322004434e+01 1.2983598539434144e+01 1.0202885707754071e+01 -2 -2 0
235 1 1.2553728238595703e+01 1.3543327981439550e+01 1.2877168770552846e+01 -1 1 0
237 2 1.1959857679745991e+01 1.2946773441477308e+01 1.3432509138711985e+01 -1 1 0
122 2 1.2341191083108864e+01 1.3230627563320930e+01 1.1219204013688021e+01 -2 -2 0

Velocities

142 1.3680769343132308e+01 -9.9197333257573437e+00 8.4504459562834744e-01
144 6.6944804587504407e+00 -9.2638844885076921e+00 -1.6842715566479573e+01
204 6.2322891480146207e+00 5.8975224167388243e+00 3.5752441696475818e+00
202 -4.1463364685829571e+00 4.6650836374606275e-01 1.0815843885948217e+01
203 1.7669894623360964e+01 7.1871406544478500e+00 -3.6562706056488103e+01
143 -8.4225672428417866e+00 3.9815784937249421e+00 -3.3152904550622267e+01
32 1.1732369951626576e+00 -5.2895546020479403e+00 1.6451598460226389e+01
232 -6.6892303301496696e+00 5.4774683527318899e+00 6.2945767327294302e+00
153 -3.1350214922832045e+00 3.2032602250384727e+01 -1.6365089572726031e+01
234 2.8676733273125237e+01 -6.0615350255491247e+00 9.5200877660725318e+00
78 -2.2252693540057791e+01 -1.1733663069627786e+01 2.3317738288441898e+01
282 9.1385748584455015e+00 5.1701388448569583e+00 2.0263670963533524e+01
280 4.1835679032000854e+00 8.2214251184453913e-01 -2.4834849218125599e+00
140 1.3209567182388071e+01 -2.3598862207591984e+00 1.1654897916829349e+01
139 2.3937463291042418e+00 6.3533495939803526e+00 2.1573246192254336e+00
141 -1.0681221511666362e+01 -5.6703545229152343e+00 -7.5634944909121256e+00
48 -3.5823730347800875e-01 1.4003773055428479e+01 8.4419396252646699e+00
281 4.2320249749168110e-01 -2.0449122689433622e+01 -3.3662370035882603e+01
46 4.8602172032189976e+00 4.2537984484092578e-01 -3.1681140648485644e-02
110 2.6851151461722940e+00 1.4858473438157830e+01 -2.5521950984782760e+00
47 1.8312420302288006e+00 1.7388866388815451e+01 -1.9230143070685741e+00
84 2.8840559826941417e+00 2.0751650008443036e+01 -1.5198332628215878e+01
200 3.8114392976634917e+00 7.5128590201747192e-01 -1.5101722347050817e+01
95 -1.8965867957000135e+01 2.9670484110955133e+00 7.1560740975216297e-01
9 -8.4698267609297258e+00 1.8259376899706595e+01 -2.4431592196489483e+01
7 -1.3463634913971103e+00 -6.3074711309943963e+00 -2.1667875978768385e+00
191 -6.0214581322512686e+00 1.4410630982944010e+01 9.0002731385590469e+00
190 -2.7491582702811006e+00 1.0944752435234230e+01 2.3325873621100657e+00
192 -2.1986931682839948e+01 1.3254077683433517e+01 1.9843177962751835e+01
134 -1.4745296539005482e+01 6.7453080740444200e+00 -3.0218778068644088e+01
8 7.0113545240009731e+00 1.0295978479497695e+01 -4.1864578039805261e-01
201 4.1902396106639721e+01 9.2976389091432843e+00 -3.4777888301731537e+01
199 -1.4042275000672879e+00 -3.8145940033766887e+00 7.6090246562315427e+00
44 8.5374023687486733e-01 -1.7122896301393438e+00 3.1430791240531553e-01
77 -1.9599258707463886e+01 2.7545498140321958e+00 4.1937509348711846e+00
76 2.9972898790337523e+00 2.1282106324972805e+00 3.0042917750144302e+00
156 -2.6399534528143363e+01 1.8171410217760197e+01 7.2139112563250469e+00
208 5.4466442288480863e+00 4.9038976070628886e+00 2.0846521954937178e+00
154 1.6890167544557244e+00 -5.3224771802372250e-01 5.6847437193156203e-01
155 5.7411601977285933e+00 -7.0721631315291722e+00 -6.2297169978317060e+00
210 8.9868490026765624e-01 1.7487782528046214e+00 7.3907337472871468e-02
131 1.5498808967374710e+01 -3.1508401658736002e+01 -2.3239892408519321e+01
209 2.5226043861407255e+00 -3.3246705372026462e+01 1.2506665166834544e+01
82 -4.4974643389316933e+00 5.4848036852754556e-01 -4.7234284245068050e+00
221 -3.0237692061278323e+00 1.6382946875285210e+01 3.7535296801637932e+00
220 8.4157769644548575e-01 -3.8370809406584487e+00 -1.7418214694310994e+00
89 -8.8498837475581098e+00 1.3665097732241179e+01 1.7413833273750253e+01
88 9.5172166169643346e-01 -5.1094337277848725e+00 4.1193368922318685e+00
90 2.4126817709489028e+01 -3.1606675732694704e+01 7.9840062327191266e+00
83 2.8286957581481921e+01 2.4943651219718497e+01 1.5293298171079121e+01
222 1.4055860587874344e+01 1.4393039925041649e+01 2.9893806168217363e+01
182 8.2428109834048051e+00 1.9753839366640765e+01 1.6658748212801162e+00
94 3.2133925192141728e+00 -3.6396487631273371e+00 3.3161039436407194e+00
54 1.2430205436773374e+01 1.1171276364740487e+01 -3.3238143422565125e+00
52 4.5782376021662623e+00 3.0431488862442952e+00 1.5277489815271059e+00
96 3.2077510298586887e+01 -4.3847011848801349e+00 1.6828028527212691e+01
180 1.0907414502774019e+01 2.2671800879102900e+01 -1.5389385667521216e+00
178 2.9615355510814960e+00 5.6792446339339175e-01 1.7460521051487445e+00
179 1.9792583535982022e+01 2.1172518121169077e+01 4.3150780768667154e+00
19 -1.5357114681884827e+00 1.7601160705580119e+00 -8.5926207177717870e+00
20 5.0268864748243756e+00 6.5517126041774079e+00 -1.3405562351119139e+01
185 3.0849128439720623e+01 -7.6292989796936139e-01 -1.2615507736413536e+01
184 4.1876422694090465e+00 2.1364550384268006e+00 -3.5922116077702166e+00
21 -1.2205056772891282e+01 -3.6058344684828421e+00 -1.2752769056012938e+00
186 -5.4963471356633535e+00 -5.5690203609612379e+00 -4.3365536296728582e+00
233 -9.5858863533738070e+00 -3.4736235843692029e+01 -2.0638944848540852e+01
87 -1.5560643253860043e+01 -3.3876317078734268e+00 -1.9432777426428192e+01
86 8.5966210675623445e-01 3.1107761872523207e+00 5.4184484672488216e+00
85 8.5135394100870414e+00 -2.6791285339394335e+00 1.0856975870924619e+00
262 4.7509043108391058e-01 -1.0669685624562251e+00 7.1344084620173405e+00
264 5.3384799053748777e+00 -6.0990268859777537e+00 1.9653991242499423e+01
263 -5.1602445462514490e+00 -2.1171433844230577e+01 1.3663224497994326e+00
255 1.2751403628186837e+00 -2.2533809244469403e+01 -7.8228973172522869e+00
53 2.0376228021500182e+01 -6.4446319571141624e+00 9.2760308109139142e+00
174 -4.6023559880984287e+01 -3.8334283910019433e+00 -3.8682660328917344e+00
172 -4.6664879242805508e+00 1.4226827784455456e+00 -1.8438941746928068e+00
173 6.8201880606218035e+00 -3.9573106897474013e+01 -6.3305077948643209e+00
259 4.2894162696321567e+00 3.2521941683610125e+00 2.6133344972871932e+00
261 -5.0218615748334372e+00 -9.1171888703356476e+00 1.7065834141927112e+01
260 1.0213118617659594e+01 4.2688921100569397e+00 -2.6137583649020510e+01
166 -3.9605824255726590e-01 1.5185674145729642e+00 2.2977189066655566e+00
168 8.7057777847614659e-01 9.8335887651195968e+00 -6.4090778331577640e+00
167 -1.5011468348920875e+01 1.0009167907609498e+01 7.1727841096381706e+00
39 4.9164241390973000e+00 1.1983135052722824e+01 2.9187871847453753e+01