LAMMPS data file via write_data, version 15 Apr 2020, timestep = 2000000

288 atoms
2 atom types

6.0154340515512494e-02 1.3112091159482999e+01 xlo xhi
7.1684671450044313e-02 1.5625405228547681e+01 ylo yhi
6.6948182661660915e-02 1.4592973117338701e+01 zlo zhi

Masses

1 15.9994
2 1.00794

Atoms # atomic

220 1 1.6702623530131828e+00 1.2205152187539368e+00 2.5337028181249015e+00 1 -1 2
221 2 2.6206630361604506e+00 1.0742156899190756e+00 2.4899218113890504e+00 1 -1 2
222 2 1.3890868341745994e+00 1.8204386916588333e+00 1.7935086355897676e+00 1 -1 2
119 2 7.1294974584994808e-01 1.4776493829059703e+00 4.0910938072119105e+00 2 1 0
101 2 1.3091452777732455e+00 3.9021540164365685e+00 1.2681358048460931e+00 1 0 1
258 2 2.3457057077834900e-01 4.6243443236340847e+00 3.5756921541231033e+00 -3 -2 2
100 1 1.1975028641444727e+00 3.1924336216956974e+00 6.3623725068756987e-01 1 0 1
208 1 1.5305361339757448e+00 5.2352295852647428e+00 2.3120412971594542e+00 2 0 0
102 2 2.0397818329474342e+00 3.1471652817961933e+00 9.4632361414734814e-02 1 0 1
148 1 4.4574156419487050e+00 1.2521470541290658e+00 3.1016347146977776e+00 0 -2 1
149 2 5.3042506024705594e+00 1.2616038754969137e+00 2.6073479921008627e+00 0 -2 1
40 1 7.2041115950195973e+00 1.3253268384715928e+00 2.2828731759022798e+00 0 0 0
41 2 7.6577462439120723e+00 1.5274984944538519e+00 1.4471717611752049e+00 0 0 0
182 2 5.8860835227357393e+00 4.1879766983680362e+00 2.3947526722197008e+00 0 1 2
181 1 6.0388129808591859e+00 4.7155861696355172e+00 3.1942836122534293e+00 0 1 2
183 2 6.9516354978675663e+00 5.1289399312171309e+00 3.3211611960525254e+00 0 1 2
42 2 7.1875871158679789e+00 3.9573697233300814e-01 2.3468444992635402e+00 0 0 0
150 2 4.5909211438477540e+00 2.1254638856673682e+00 3.5489817637972925e+00 0 -2 1
11 2 5.1475881458147708e+00 3.7391505477013367e+00 4.6856198189461917e+00 2 1 0
283 1 5.8229766595930341e+00 4.2303690115576851e+00 3.3400988222127820e-01 -1 0 2
27 2 9.0512123536783093e+00 1.8038104602005502e+00 3.5562006958019947e+00 0 -1 1
120 2 1.2681888803621980e+01 2.5917963242423729e+00 4.4484537279547096e+00 1 1 0
118 1 1.2908760726707182e+01 1.6371032367356855e+00 4.5390814281362841e+00 1 1 0
256 1 1.2528768969630597e+01 4.3901263757510991e+00 4.2151895710929006e+00 -4 -2 2
269 2 1.0324060287611090e+01 3.3526551271076803e+00 2.5283121593801625e+00 0 -1 0
268 1 1.0489487350207739e+01 4.3159351343711299e+00 2.3520478841640204e+00 0 -1 0
270 2 9.5887539914106377e+00 4.7345434422526864e+00 2.2976726008081587e+00 0 -1 0
257 2 1.1675947904313983e+01 4.5767509144816225e+00 3.7106298454266211e+00 -4 -2 2
26 2 1.0464943208289689e+01 1.0738102416726873e+00 3.5966959908556921e+00 0 -1 1
25 1 9.9872163986781430e+00 1.8938411587930883e+00 3.8441561099786825e+00 0 -1 1
275 2 1.1614696393097123e+01 4.9293747602918838e+00 9.3131440534546681e-02 -2 0 1
210 2 2.2683841585525237e+00 5.6052506890747180e+00 2.8329919641490156e+00 2 0 0
67 1 3.8544008887684753e+00 6.3495047412003638e+00 3.4509141695187036e+00 0 1 1
209 2 1.2207908159172876e+00 6.1478342212714256e+00 2.0723363830725718e+00 2 0 0
29 2 7.1655513892866229e-01 8.8499920876770446e+00 3.1452069947077201e+00 4 0 0
28 1 6.6338635530562917e-01 7.9776060178897907e+00 2.7019881507968111e+00 4 0 0
68 2 4.2516433769269195e+00 7.0054663741638565e+00 2.8587642762355898e+00 0 1 1
89 2 5.0391952658473838e-01 7.9644193289677530e+00 1.0027968924004651e+00 3 0 2
88 1 4.2776357623126521e-01 7.5630427293898110e+00 1.3577902982458617e-01 3 0 2
69 2 4.4899815231454774e+00 5.5340640396020166e+00 3.4555010848390428e+00 0 1 1
19 1 4.6065176520810098e+00 9.9171537970525847e+00 4.6489433984172361e+00 0 0 0
21 2 4.5873786610853413e+00 9.2738691435854079e+00 3.8928403212431588e+00 0 0 0
87 2 4.7086390402630105e+00 8.8617034466625952e+00 1.4924624648461138e+00 0 1 2
85 1 5.1149790866546141e+00 8.4428176828423531e+00 2.2876248530979426e+00 0 1 2
86 2 6.0124358653566974e+00 8.2671012534657535e+00 1.8800724259578057e+00 0 1 2
70 1 7.6470801708042684e+00 8.5203963999001928e+00 1.8343504347727031e+00 -2 -1 0
72 2 8.3095950702797197e+00 8.3738851581039846e+00 1.1993866576156913e+00 -2 -1 0
114 2 7.9147255352873147e+00 6.8590921100051023e+00 3.1886043392186845e+00 1 0 2
112 1 8.3408582980751120e+00 5.9966099550072309e+00 3.3870114804022231e+00 1 0 2
113 2 8.2151494909919371e+00 5.8774187922802863e+00 4.3847332097721647e+00 1 0 2
71 2 7.7474770471742920e+00 9.4140058750363842e+00 2.0985169400636972e+00 -2 -1 0
124 1 1.1016330948078878e+01 7.8680773895177687e+00 2.8161822569643844e+00 2 0 1
30 2 1.2666303105279770e+01 7.9721401437431583e+00 2.7627469128651017e+00 3 0 0
125 2 1.0381590672293061e+01 7.1844305932149846e+00 2.9615635008323182e+00 2 0 1
126 2 1.0850161348522722e+01 8.5738426465983650e+00 3.4879000070688879e+00 2 0 1
141 2 1.1715191790954545e+01 1.0257605239946837e+01 4.2443358577742289e+00 -1 3 -1
139 1 1.0944415820972221e+01 1.0121025603323510e+01 4.8987540021422706e+00 -1 3 -1
90 2 1.2726719904877694e+01 6.9051888385569713e+00 8.0338043237611539e-02 2 0 2
103 1 5.5461094276319534e-01 1.0478142370248179e+01 3.2940887605181834e+00 -1 -1 0
105 2 1.1193552317605939e+00 1.0739582560471742e+01 4.0070910185120026e+00 -1 -1 0
95 2 3.3682266446285070e+00 1.3742661594532287e+01 7.6284442698641319e-01 -1 1 -1
96 2 2.9927087215829871e+00 1.2352718207351469e+01 2.7907323739390821e-01 -1 1 -1
94 1 3.1550122152282212e+00 1.2859507100823112e+01 1.1020668405086036e+00 -1 1 -1
136 1 2.2412771754078862e+00 1.3164378903468688e+01 3.9175207806541161e+00 -1 -2 1
137 2 2.4015336344551717e+00 1.3299224113823080e+01 2.9578402444220653e+00 -1 -2 1
138 2 1.3791237272277097e+00 1.3597638843506147e+01 4.0050006377189877e+00 -1 -2 1
195 2 1.2468758006519727e+00 1.5457488191830485e+01 6.9963458252957866e-01 -1 2 -2
104 2 4.6986328169084562e-01 1.1307007972210467e+01 2.7850557033751131e+00 -1 -1 0
248 2 2.2296687563207473e-01 1.3180210392004213e+01 1.0158122012734649e+00 1 2 1
168 2 5.2246556740100614e+00 1.0867012373562499e+01 2.4614236595614285e+00 2 1 -1
9 2 5.0408343946880203e+00 1.4958701611819198e+01 4.1716023425051310e+00 -2 -1 -2
175 1 7.9265886262914931e+00 1.4168228475419632e+01 2.7933563212616170e+00 1 -1 -1
176 2 7.4038844109097326e+00 1.4401430157126939e+01 3.6414545535504068e+00 1 -1 -1
24 2 8.7054779950437720e+00 1.1686743071486017e+01 2.9000126716853076e+00 0 0 0
167 2 5.0396830449471244e+00 1.2274182336500601e+01 1.6623010463886241e+00 2 1 -1
22 1 8.0571662853341195e+00 1.1042411488523832e+01 2.4945957595670269e+00 0 0 0
166 1 5.6496520990406296e+00 1.1633613907704294e+01 2.0158524502837945e+00 2 1 -1
23 2 7.1611080686539879e+00 1.1527236680675834e+01 2.3788350601634547e+00 0 0 0
156 2 8.2428034148116218e+00 1.1833402107049345e+01 7.6888074103224191e-01 -2 0 0
7 1 5.8381355941871638e+00 1.4706533600026340e+01 4.6848449455702728e+00 -2 -1 -2
99 2 1.2234052476611478e+01 1.5115077703403163e+01 6.0144018992905657e-01 -3 0 0
97 1 1.1277426205496667e+01 1.5300188641587354e+01 4.8017465809712706e-01 -3 0 0
177 2 8.8551790198847868e+00 1.4321805055977411e+01 2.9966646664050360e+00 1 -1 -1
64 1 1.0703222056547048e+01 1.4657016736909718e+01 3.0015740411229617e+00 -1 -2 2
65 2 1.0852377118430088e+01 1.4750045514628731e+01 2.0579281191530541e+00 -1 -2 2
247 1 1.2651008792911437e+01 1.2450270416237654e+01 1.2427744311750577e+00 0 2 1
249 2 1.1879673058891729e+01 1.2573441808485526e+01 6.7160419074970523e-01 0 2 1
66 2 1.1326906543860080e+01 1.3939306310544787e+01 3.3838132243303392e+00 -1 -2 2
133 1 1.2443035956623852e+01 1.3325238648525684e+01 4.6856479246169371e+00 1 -1 0
140 2 1.0330298525644181e+01 1.0799060671028052e+01 4.7611501245656100e+00 -1 3 -1
261 2 3.7379286217506141e-01 2.1186762997381487e+00 6.3958356384930877e+00 -2 0 2
259 1 4.6419566272656693e-01 2.5412176419339536e+00 7.2728412877390216e+00 -2 0 2
179 2 1.6623664484103486e+00 1.7122196377792633e+00 8.3138630900310417e+00 1 0 -1
107 2 2.1747356642918918e+00 3.8601816931317630e+00 7.0740960951252569e+00 0 -3 0
106 1 3.0497743376039583e+00 4.2252445800882237e+00 7.0024084823270414e+00 0 -3 0
108 2 2.9293942091575982e+00 5.1283967309427574e+00 6.7036711913553164e+00 0 -3 0
60 2 4.1996948267035892e+00 4.5869488633278115e+00 8.5777983056941451e+00 -1 -1 1
178 1 1.9705199872788162e+00 1.0898979722744202e+00 8.9557397688554623e+00 1 0 -1
180 2 1.4008656412850049e+00 3.4755296562631960e-01 8.8092156800723842e+00 1 0 -1
83 2 3.6390137799429665e+00 9.9206660323615159e-01 9.1535778391914313e+00 0 2 -1
12 2 4.0820408109176016e+00 3.5234245361115750e+00 5.7018211596675439e+00 2 1 0
123 2 5.3315376797933309e+00 1.2699941284974803e+00 7.8328976234167316e+00 1 1 -1
121 1 5.9365217702843314e+00 1.4166038741633256e+00 7.0749048873845908e+00 1 1 -1
122 2 5.4164181133675653e+00 2.0451158905204676e+00 6.4796903261248779e+00 1 1 -1
273 2 7.8140379792943140e+00 3.3116972509410969e+00 8.1614015914338758e+00 0 1 -2
10 1 4.8424090266384612e+00 3.1166595966383448e+00 5.3240392265153451e+00 2 1 0
58 1 4.6672141864562313e+00 4.9093619455085236e+00 9.3581335795100280e+00 -1 -1 1
45 2 7.8854120419996914e+00 7.4170190933767077e-01 8.6922070786395622e+00 2 1 2
271 1 7.6489524027768088e+00 2.8049317110802208e+00 8.9842875533241404e+00 0 1 -2
272 2 6.7395573993994189e+00 2.4195859249016713e+00 8.7522759339842757e+00 0 1 -2
82 1 4.5311781422372226e+00 7.2810991507068512e-01 9.3981982334847523e+00 0 2 -1
147 2 1.1848606596416499e+01 6.2265465547568499e-01 5.5914269169392439e+00 0 2 -2
260 2 1.2652279172515016e+01 2.7816215694597104e+00 7.5818688033714423e+00 -3 0 2
44 2 9.3119144586168865e+00 7.2199334735999254e-01 8.4541191097360375e+00 2 1 2
32 2 9.0097722030415426e+00 4.9005825871442710e+00 6.1186802814444601e+00 -2 0 0
190 1 9.5189311879850074e+00 3.0647559574103185e+00 6.3858782421458633e+00 0 0 2
192 2 9.9412678876982135e+00 2.6092060462965261e+00 5.6350581007292737e+00 0 0 2
191 2 1.0076048305834835e+01 2.6782232410852203e+00 7.0750961294784807e+00 0 0 2
197 2 1.1171536357801493e+01 1.5480556455207219e+00 9.2298503629925150e+00 -1 0 -3
196 1 1.1058603478107642e+01 2.3903449671376507e+00 8.7505631604912857e+00 -1 0 -3
198 2 1.0980785947287856e+01 2.9519357374079447e+00 9.5338556939700965e+00 -1 0 -3
146 2 1.1673456655134689e+01 4.1039923347683999e-01 7.1077607333149482e+00 0 2 -2
36 2 3.0016916870296546e+00 6.5513168313837227e+00 5.0987670697615624e+00 0 0 2
35 2 1.6574677905713977e+00 6.8366859329553353e+00 6.0167588402759744e+00 0 0 2
34 1 2.6230411581072901e+00 6.7830005528093125e+00 5.9701104418587869e+00 0 0 2
48 2 3.4223474337883686e+00 7.9368225070746421e+00 6.7301301135562017e+00 -2 1 0
254 2 3.0407107128009945e+00 1.0406583649346807e+01 8.0416081716823733e+00 0 -2 0
239 2 2.6671984367361201e-01 6.8241847390562036e+00 8.3351344431022909e+00 -3 0 2
240 2 4.1924078796599668e-01 8.1053986046545354e+00 9.1151088034191581e+00 -3 0 2
238 1 2.7541254297179202e-01 7.1725832305780619e+00 9.2265765751591147e+00 -3 0 2
91 1 1.2728401805841355e-01 9.9197878744710763e+00 9.4262447095100121e+00 2 -1 -1
46 1 3.8111021867363846e+00 8.8145883161225775e+00 7.0213429746739866e+00 -2 1 0
92 2 1.0186220928674137e+00 1.0177514529157150e+01 9.2607178864028192e+00 2 -1 -1
20 2 4.4627016209459311e+00 9.2933384338704137e+00 5.4350731395026886e+00 0 0 0
47 2 4.6650180549638698e+00 8.7645405573385418e+00 7.4017096192947358e+00 -2 1 0
37 1 6.3096331125738061e+00 6.4797001791040572e+00 7.6903875333372644e+00 -1 0 -1
38 2 6.0299556034661963e+00 6.0552219381701411e+00 8.5001729436649072e+00 -1 0 -1
39 2 6.6839980764122542e+00 7.3556059860772871e+00 8.0144213141015559e+00 -1 0 -1
33 2 7.7498039548082502e+00 5.8342835170735921e+00 6.6657355273375334e+00 -2 0 0
31 1 8.5156295000302045e+00 5.7375349185782021e+00 6.0178298930630305e+00 -2 0 0
127 1 6.7655343306778617e+00 9.0603703278274814e+00 8.6011757511356493e+00 2 -1 -1
128 2 6.4699176400279441e+00 1.0009237165959572e+01 8.3989321905713403e+00 2 -1 -1
129 2 6.3459790510992127e+00 8.8202113702938831e+00 9.4849636542780900e+00 2 -1 -1
186 2 1.2678727799106269e+01 5.6853279305706677e+00 5.5018797291594108e+00 0 2 -2
184 1 1.2877783447563704e+01 6.4234100376120766e+00 6.1373359513022834e+00 0 2 -2
185 2 1.2103629807707943e+01 7.0365965167138906e+00 6.2551522203191805e+00 0 2 -2
63 2 9.9073492514869699e+00 7.5844784462904897e+00 6.7089553685702992e+00 2 0 -1
62 2 1.0762821894620121e+01 8.8804966219479589e+00 6.4157680924857816e+00 2 0 -1
61 1 1.0702133012590576e+01 8.0448254250989351e+00 6.9068432478364112e+00 2 0 -1
76 1 9.9524471093263749e+00 9.3089816992122749e+00 9.3131672909772583e+00 0 -1 -3
78 2 1.0414079347302941e+01 8.9160871533589798e+00 8.5727585776665798e+00 0 -1 -3
77 2 8.9764808948278514e+00 9.1665259948289055e+00 9.1702307440943827e+00 0 -1 -3
266 2 3.1406632368132756e+00 1.0860452880712984e+01 5.2024595841799144e+00 1 -1 -2
267 2 2.3019876959132013e+00 1.2117090476789897e+01 4.9720375928536518e+00 1 -1 -2
265 1 2.2928750784359142e+00 1.1235548551203497e+01 5.4158024331354717e+00 1 -1 -2
255 2 2.3520036193746869e+00 1.1287574846187979e+01 7.0854302996856022e+00 0 -2 0
253 1 2.3930455994744055e+00 1.1130964500670906e+01 8.0676748962529672e+00 0 -2 0
51 2 1.9293357588009765e+00 1.3889317729993738e+01 9.3068920770684400e+00 0 1 2
50 2 2.8733736430920391e+00 1.2714839984875063e+01 8.9413592310690966e+00 0 1 2
169 1 3.5653086990671856e-01 1.4273458385295175e+01 8.9254942535571899e+00 0 -2 -1
49 1 2.8744619280692008e+00 1.3596144707213387e+01 9.3775651703205725e+00 0 1 2
43 1 8.5479491857515981e+00 1.5618418270536811e+01 8.4864798121569009e+00 2 0 2
144 2 8.2262984389170413e+00 1.5157092972250521e+01 6.0311583024071993e+00 2 2 1
215 2 5.6930832254712245e+00 1.1322329276022270e+01 5.0170444484409922e+00 2 0 2
214 1 6.1740680849972920e+00 1.2109981169636516e+01 5.4044025287695687e+00 2 0 2
216 2 5.8241238749951298e+00 1.2975891713941696e+01 5.0630010149847209e+00 2 0 2
8 2 5.9896666023426297e+00 1.5465952113121372e+01 5.2847624071036208e+00 -2 -1 -2
81 2 7.8417438358635705e+00 1.3560238596899055e+01 8.8804753161932766e+00 1 -4 2
224 2 6.6158623108184100e+00 1.1940076349492003e+01 8.6474411712238073e+00 -1 3 2
223 1 5.9078219357166413e+00 1.1454121034488363e+01 8.0498677820368059e+00 -1 3 2
225 2 5.9347467146148132e+00 1.1663120609600046e+01 7.0536863919232831e+00 -1 3 2
79 1 7.7610545544005536e+00 1.2666227441897352e+01 9.2583388869797858e+00 1 -4 2
281 2 8.1205921743449245e+00 1.1727562290648674e+01 5.1270193519869904e+00 -1 -1 2
80 2 8.5332150684298114e+00 1.2162403837270144e+01 8.8651158188049770e+00 1 -4 2
84 2 4.4372847588852400e+00 1.5307469861533203e+01 9.3971818199810002e+00 0 1 -1
135 2 1.2194312841183507e+01 1.4087534113622986e+01 5.1096104765488848e+00 1 -1 0
145 1 1.1515514706877539e+01 1.5586194722946175e+01 6.2835564287360617e+00 0 1 -2
204 2 1.3062108623232952e+01 1.1244372404398135e+01 7.7995768348332888e+00 1 0 -1
280 1 9.0599585223750978e+00 1.1977459920059513e+01 5.1778281931471763e+00 -1 -1 2
282 2 9.0490593814639126e+00 1.2945741088639867e+01 5.1567014455980660e+00 -1 -1 2
142 1 8.9295424176425371e+00 1.4701658600449342e+01 5.5499182557879152e+00 2 2 1
171 2 1.2702935924937822e+01 1.4582598075813973e+01 9.5624909353360223e+00 -1 -2 -1
170 2 1.2950993780866114e+01 1.3609816295852088e+01 8.3633574971367608e+00 -1 -2 -1
143 2 9.8025461401787908e+00 1.5148438123887150e+01 5.6511184356426565e+00 2 2 1
202 1 1.2659760855942352e+01 1.2025821654623911e+01 7.3661562420132203e+00 1 0 -1
134 2 1.2505415876246467e+01 1.2626747241442239e+01 5.4219183742995991e+00 1 -1 0
203 2 1.1690556194163818e+01 1.1940805181805906e+01 7.6428321721114072e+00 1 0 -1
17 2 9.2948359383959414e+00 1.1577248131837756e+01 6.8967158922409357e+00 1 0 2
16 1 9.8211340650170165e+00 1.1565150765056853e+01 7.8075837114068420e+00 1 0 2
18 2 9.7867229194896126e+00 1.0696654073861954e+01 8.2671609659409526e+00 1 0 2
236 2 1.1290562328479796e+00 4.5518053950345765e+00 1.1125797666381938e+01 0 1 1
235 1 1.8031276266998122e+00 3.9286597814697313e+00 1.0873495531329421e+01 0 1 1
237 2 1.6330950968766051e+00 3.6582350341877938e+00 9.9762279866700645e+00 0 1 1
217 1 4.2684843767191936e+00 2.4324954107497243e+00 1.3588347047050075e+01 -4 0 -2
219 2 4.1777698433924835e+00 1.4956427337104528e+00 1.3768351520499706e+01 -4 0 -2
243 2 1.4533808276603670e+00 6.7152044263817656e-01 1.1752419842844127e+01 -2 -1 1
241 1 2.2095406129012596e+00 7.9248009733309033e-02 1.2127557775159204e+01 -2 -1 1
245 2 8.3651561455198797e-01 2.7204067421508622e+00 1.1258223073895589e+01 0 -1 3
244 1 2.4441603057855943e-01 2.0462651767271489e+00 1.1593514041233043e+01 0 -1 3
59 2 3.9715951324309979e+00 5.1372016731150083e+00 9.9873682737416196e+00 -1 -1 1
218 2 4.6213516277520874e+00 2.4129277449872268e+00 1.2646895303112988e+01 -4 0 -2
153 2 4.8273674810696177e+00 1.8777930350435699e+00 1.0552242362760975e+01 2 0 1
151 1 5.1427056077949844e+00 2.6279610667503093e+00 1.1095074643320476e+01 2 0 1
263 2 8.2347596809610266e+00 2.0791053804371256e+00 1.1033130462526426e+01 -1 0 0
152 2 5.0876291307130952e+00 3.3970010702486100e+00 1.0501089792756215e+01 2 0 1
284 2 4.9427804733971223e+00 3.8219184757098166e+00 1.4509257201356530e+01 -1 0 1
285 2 6.0441798222046756e+00 4.9018937213520584e+00 1.4149696685395806e+01 -1 0 1
278 2 6.6577450878499471e+00 2.0715154254493653e+00 1.4127664530878612e+01 -1 -1 0
279 2 8.0042350886983265e+00 2.2124456400817736e+00 1.3311996706361789e+01 -1 -1 0
277 1 7.5966246023223665e+00 1.7413009123062915e+00 1.4079048177809856e+01 -1 -1 0
228 2 8.7003949286914626e+00 4.0270961912264216e+00 1.0882062612594947e+01 3 3 1
227 2 7.2649576599699071e+00 3.6132570034783398e+00 1.0952991194703085e+01 3 3 1
226 1 7.8658941220152947e+00 4.2227579030558093e+00 1.1347279174901530e+01 3 3 1
207 2 1.1545454500559394e+01 1.4487528057520578e+00 1.4181966896232073e+01 -1 1 -2
4 1 1.0798616361078476e+01 3.7421048327510866e+00 1.0935855347726058e+01 -1 -1 0
5 2 1.1607516449075149e+01 4.3025123803302439e+00 1.1082513973497441e+01 -1 -1 0
6 2 1.0462329592422350e+01 3.4285384662778684e+00 1.1786664865267266e+01 -1 -1 0
206 2 1.2564961939841517e+01 2.5362934996945197e+00 1.4397387817966944e+01 -1 1 -2
246 2 1.2908246690038116e+01 2.2568991612517997e+00 1.2451475825967190e+01 -1 -1 3
264 2 8.7954862987279760e+00 7.0289717641273364e-01 1.1270265699865107e+01 -1 0 0
262 1 8.9088518313004954e+00 1.6325432919455292e+00 1.1568055475252464e+01 -1 0 0
205 1 1.1741127670879663e+01 2.3906192046247456e+00 1.3873657525193718e+01 -1 1 -2
212 2 1.2393393835661417e+01 9.5431085285001627e-01 1.0767904919997424e+01 -1 3 0
211 1 1.1746642468427634e+01 3.4910810040196244e-01 1.0287721066880007e+01 -1 3 0
213 2 1.1095302392793741e+01 1.9300775755566796e-01 1.0959926021583406e+01 -1 3 0
56 2 4.0187998846453676e-01 9.2872859718631950e+00 1.3985245474821234e+01 1 -1 1
164 2 2.7921545072042737e+00 5.8711392476625379e+00 1.3587119753361709e+01 -1 -1 0
163 1 2.6794449086952321e+00 6.8174283033223659e+00 1.3453846914726441e+01 -1 -1 0
158 2 3.7775883733516449e+00 8.4376547366017824e+00 1.3746327866282133e+01 2 -2 0
159 2 3.8865405927949279e+00 1.0040647449882680e+01 1.4073824781188083e+01 2 -2 0
165 2 1.8091457987469073e+00 7.1080495200239069e+00 1.3898230939848268e+01 -1 -1 0
1 1 2.8945847991706133e+00 6.8980665928749980e+00 1.0565379115988058e+01 -2 1 1
2 2 2.5191682985590340e+00 7.0306238540673345e+00 1.1459063496921242e+01 -2 1 1
3 2 2.0416722648875485e+00 6.8478785336633905e+00 1.0070001103703667e+01 -2 1 1
157 1 4.2879571796525440e+00 9.1319090844327775e+00 1.4181376909944472e+01 2 -2 0
55 1 4.3925769626683686e-01 1.0236220339124412e+01 1.3699885840656513e+01 1 -1 1
75 2 4.4485215438854508e+00 8.1094689052590532e+00 1.0794611980203516e+01 1 -1 -1
73 1 5.3649964573301192e+00 8.1373414402636151e+00 1.0857157603012055e+01 1 -1 -1
74 2 5.5875561297623557e+00 8.8857550590128049e+00 1.1416338848287435e+01 1 -1 -1
116 2 7.8833599194491777e+00 6.8078561008371743e+00 1.3566832908781322e+01 1 -1 -1
232 1 6.4308687886039628e+00 6.1044697273693966e+00 1.2823538894926372e+01 1 2 1
234 2 6.7730259428307464e+00 5.6604742773312227e+00 1.2027243963854993e+01 1 2 1
233 2 5.5999549819801180e+00 6.4660542866268855e+00 1.2441110081004521e+01 1 2 1
132 2 8.2063280908482454e+00 9.3100387462156924e+00 1.2310949359541414e+01 -1 -1 1
287 2 5.6828153518902402e+00 9.3497270575019087e+00 1.3286358636773191e+01 1 1 0
286 1 6.3131097115933912e+00 9.6706060121607464e+00 1.2497045521790032e+01 1 1 0
115 1 8.7854022722969525e+00 6.9633289070694859e+00 1.3849758192836781e+01 1 -1 -1
117 2 9.1232554620056270e+00 7.6799765725997595e+00 1.3276777615392724e+01 1 -1 -1
130 1 9.1650759241932249e+00 9.1501962143703395e+00 1.2116440561017711e+01 -1 -1 1
131 2 9.3307515492895661e+00 8.9038535684867099e+00 1.1102337303130611e+01 -1 -1 1
274 1 1.1711312904447677e+01 5.6543866780759142e+00 1.3991112272634837e+01 -2 0 0
276 2 1.0769879207202759e+01 5.7888752957181167e+00 1.3812901753836776e+01 -2 0 0
172 1 1.2755696695687753e+01 5.3676523215496790e+00 1.1504205480867583e+01 2 1 -1
173 2 1.2463918018601131e+01 5.5512428243268701e+00 1.2421836969448616e+01 2 1 -1
174 2 1.2646884266780539e+01 6.0788171359715095e+00 1.0836229345988386e+01 2 1 -1
193 1 8.5293804421152464e-01 1.4902764525468438e+01 1.4553958628327951e+01 -1 2 -3
242 2 2.3454813393743148e+00 1.4933688152575492e+01 1.1484682956207784e+01 -2 -2 1
194 2 1.1085468986767433e+00 1.5426970133221413e+01 1.3698177308987692e+01 -1 2 -3
189 2 1.9576062588826442e+00 1.1019030715064254e+01 1.3311957327538849e+01 -4 3 -3
187 1 2.9179972082379084e+00 1.1321432401073416e+01 1.3309378927581935e+01 -4 3 -3
188 2 3.2452665250755399e+00 1.1933450543887567e+01 1.2526175010841996e+01 -4 3 -3
161 2 3.8226804364489269e+00 1.3106716079389365e+01 1.0761696227519625e+01 -1 0 -1
14 2 3.3148137888687166e+00 1.5098431461311900e+01 1.3423368528355450e+01 0 -3 -2
160 1 4.2630948163553049e+00 1.3036552451350467e+01 1.1627765285085847e+01 -1 0 -1
13 1 3.9442578369841339e+00 1.5410617768115355e+01 1.4163175331309752e+01 0 -3 -2
57 2 1.8149177209459894e-01 1.0797303373183304e+01 1.4466582656583260e+01 1 -1 1
154 1 8.2251053452009906e+00 1.2116233102757541e+01 1.4348942679221803e+01 -2 0 -1
155 2 7.3791497954997007e+00 1.1771721813468481e+01 1.3967628281361566e+01 -2 0 -1
231 2 7.3746995122063206e+00 1.5434341667795806e+01 1.3673216658935871e+01 0 -2 -1
230 2 7.1506640080993797e+00 1.4018194466980773e+01 1.4240380336669855e+01 0 -2 -1
162 2 5.1530105132342392e+00 1.2664327204434489e+01 1.1460228576785806e+01 -1 0 -1
229 1 6.8553587918625771e+00 1.4609669946625232e+01 1.3490543270066944e+01 0 -2 -1
15 2 4.8114497230195594e+00 1.5106672320360136e+01 1.3875769144079552e+01 0 -3 -2
288 2 6.1136253252616903e+00 1.0619858481792939e+01 1.2308143371304027e+01 1 1 0
252 2 6.8564296049096187e+00 1.3279800378111062e+01 1.2437110830698071e+01 0 2 -1
251 2 7.1658077186652465e+00 1.2580241484887853e+01 1.1111706362581465e+01 0 2 -1
250 1 6.7512700144345805e+00 1.2413724361921265e+01 1.1989594704568134e+01 0 2 -1
98 2 1.0909461996701623e+01 1.4652323956666692e+01 1.4313930542462266e+01 -3 0 -1
93 2 1.2790839244865296e+01 1.0480816882929108e+01 1.0102595834231234e+01 1 -1 -1
200 2 1.0871026222537456e+01 1.0542396027551654e+01 1.1575519527252503e+01 -4 2 1
199 1 1.1649499450290474e+01 1.1061315275385208e+01 1.1693165296694154e+01 -4 2 1
201 2 1.2252394341313394e+01 1.0620275235867325e+01 1.2291133239832131e+01 -4 2 1
111 2 9.9287477037364305e+00 1.2335762578263861e+01 1.3779727881257894e+01 0 0 1
110 2 1.1425537025287959e+01 1.2184312197009504e+01 1.3373178226357645e+01 0 0 1
109 1 1.0812298080443384e+01 1.2781702821158596e+01 1.3775108813303028e+01 0 0 1
52 1 9.2615219795638275e+00 1.4338040764786502e+01 1.1546990003614326e+01 1 0 -2
54 2 9.8384252814553399e+00 1.3759782076491650e+01 1.2100318478785940e+01 1 0 -2
53 2 9.1320320701028841e+00 1.3763866833821009e+01 1.0743010762533434e+01 1 0 -2

Velocities

220 3.7759376208074622e+00 -1.5570747745420099e+00 -2.8618816044973854e+00
221 1.1489745681545465e+00 -1.9165043428308682e+01 4.0484830845244176e+01
222 2.8751520339767119e+01 2.4684798081377732e+01 1.5776291994967309e+01
119 -1.1547999191271010e+01 -7.1613498931429014e+00 -4.0663417246142268e+00
101 1.1661727334680069e+01 -3.4315365115779044e+00 2.1352534024230284e+01
258 7.6876187061513575e+00 -1.8559606247569910e+01 -1.0660711540667537e+01
100 -9.8556316750293627e-01 -2.8655685898019274e+00 -3.6674730306248402e+00
208 -2.7480723900598520e+00 4.7026467972004466e+00 -2.9366656909771014e+00
102 -9.1846455161610745e+00 -1.7378651914089129e+01 -1.3530158024684692e+01
148 -3.9418675739604621e+00 -7.2522786120732032e+00 -3.9275718731301552e+00
149 4.5545516823082188e+00 -2.4262987078279398e+01 -1.9891418647205093e+01
40 -8.5604306546877984e-01 3.1160972396398634e-01 -1.3041674170852187e+00
41 -1.1093803979731309e+01 9.8732023801427822e+00 -4.3225910823175440e-01
182 1.4154751602567897e+01 -2.8105266169870298e+01 1.8067457054436108e+01
181 8.1539242906940179e-01 5.1087783084486649e+00 -1.7248399419796287e-01
183 -8.4215019077465794e+00 1.3668317727307057e+01 -1.0454084963830992e+01
42 8.5680451068356511e+00 4.5016004623956469e+00 2.3183497258889521e+01
150 -6.2732194506569563e+00 2.0804082786114662e+01 5.8384588183445763e+00
11 -4.8538723024622703e+00 1.7928668145297220e+01 -1.6168890437475689e+01
283 -9.7787051852308260e-01 7.2599503758988106e+00 -3.3499618486072125e+00
27 -3.4120137383034916e+01 -1.0002440713811502e+01 4.2472824133197964e+00
120 1.6462742423252230e+01 1.3502409419073135e+01 -8.9158030524882843e+00
118 2.2757427672051675e+00 -1.4111138029449162e+00 -5.3522227156532716e-02
256 -5.9299979239759697e+00 -9.0675926999253775e+00 6.3855611712365457e-01
269 -3.2204559012684136e+01 1.8826188910702601e+01 -6.1988163753035748e+00
268 -1.4363092556551227e+00 -1.4297128838897899e+00 -1.7329565028043317e+00
270 8.4785501870326812e+00 1.5530609747804291e+01 -2.3251630550494049e+00
257 -1.1770826989025445e+00 5.5505968758404984e+00 2.2981863607670627e-01
26 2.6963577273163260e+01 1.3155693767357453e+01 1.5662135106579637e+01
25 4.6937587941290229e+00 4.8082572483602354e-01 -5.9870500863566827e+00
275 2.3437320491484246e+00 -4.8856603383961303e+00 1.3071532885223376e+00
210 -1.8646290050845302e+01 -1.3195847619239519e+01 5.5569510192993912e+00
67 3.3743692537990961e+00 -3.9181394496240479e-01 -1.0342226820704669e+01
209 -2.0722516744434703e+01 -3.8947524321469422e+00 2.4601883888696032e+00
29 1.4868476944694400e+01 1.4351993885712838e+01 2.1032118033639808e+01
28 1.2849271213005392e-01 3.7290363686964573e-01 5.3572121065341900e+00
68 -1.1464882491345511e+01 -9.8309714277337470e+00 2.0115981114020077e+01
89 1.6166343438773763e+00 -9.0456051313587906e+00 6.0641783197227328e+00
88 1.5315122936440591e+00 4.6558590227663360e-01 3.7511410480565360e-01
69 -9.1753536060059648e+00 -2.0193016238179617e+01 1.7375532000488544e+01
19 -1.7184385481382145e+00 -2.8180878449084470e+00 -4.8409880394759757e+00
21 -2.2188564931986797e+01 1.2695960995893012e+01 -1.5266005032936034e+00
87 8.4364951570898192e+00 2.1026100955839372e+01 -2.5076315406661900e+00
85 5.5541374547914240e+00 -6.3655776484086264e+00 1.3096427809927729e+00
86 -3.6907924829462701e+01 5.1913986034932194e+00 -1.6075794164711432e+01
70 1.9317229422366682e+00 -2.8316568024477631e+00 -6.8317232740802050e+00
72 8.1757001780283467e+00 -2.2857064992977669e+01 -3.0051146667898902e+01
114 -2.7176944697331841e+01 -8.4294762831477215e+00 -1.7292704946863950e+01
112 4.4813175227917137e+00 -8.5592070519305601e+00 7.5660375067872918e+00
113 7.2913801168110215e+00 -4.3620801112519052e+00 -1.6882438550086929e+00
71 2.6841571177273909e+01 -2.7931688037173834e+00 2.7090669794580776e+01
124 -1.0162379565268815e+00 -2.0964536868756758e+00 6.2768700901849150e-01
30 2.0101404034174642e+01 1.9080164712907109e+01 -1.2845327228585862e+01
125 1.0037404688252980e+01 -2.0353809946337908e+01 6.5672049039728195e+00
126 1.1174187863882020e+01 3.7309799202092764e+00 -8.9118100062363492e+00
141 -7.2628872641359683e+00 7.1174891883195335e-01 4.3094709662122055e+00
139 -4.3642859859532507e-01 5.8214190140872599e+00 2.8444674634965885e+00
90 -6.0012237366407977e+00 -4.3480389792529062e+00 -3.7558613593508348e+01
103 -2.3905200202634802e+00 -1.0416825482582110e+00 7.2904768400386333e+00
105 -1.1775247673100443e+01 2.2503829784590677e+00 -1.0811848002567025e+01
95 -1.4625631940072875e+01 3.4963122267644455e+00 2.8300838528070809e+01
96 -7.8758382622955603e+00 1.1117104006821608e+01 1.2495403054561005e+00
94 -2.8788574491518473e+00 -1.1828554584356685e+00 3.3581282883551733e+00
136 -1.7857160233042464e+00 -1.3807991977349696e+00 3.1923257342261593e+00
137 -1.7626595178510143e+00 1.8780920625683382e+01 8.6317997559558286e+00
138 -8.2893361376030210e+00 2.6196370243540237e+01 -3.3675643764929077e+01
195 -7.9264468049107908e+00 -5.9708596746087007e-02 2.6176071062715103e+01
104 1.0113065980955804e+01 -5.9573107466560513e+00 -7.6790867679709907e+00
248 4.9620535343472394e+00 7.6857285816243230e+00 -7.2271715639224077e+00
168 5.5879412106521054e+00 -7.0997737088527269e-01 4.9289946002301974e+00
9 3.7698351150179574e+00 -1.9715866442605588e+01 8.9758058160355070e+00
175 -1.7583868718019338e-01 4.6341321580970956e+00 1.6501713774022972e+00
176 1.9688957068081943e+00 -9.4742236289825179e+00 8.0130183478772672e+00
24 1.4647478292975421e+01 9.6233826319472069e+00 3.0170997469180790e+01
167 -2.2524814316619692e+00 -1.2821440401514757e+01 -2.8911294833398856e+01
22 1.5237585005829670e+00 1.5512770458352172e+00 1.1590828588093214e+00
166 5.9761983805591745e+00 5.3377166101889006e-01 -6.5085530345695854e+00
23 8.1132636252377370e+00 -2.7739420698612964e+01 -2.1910085940949870e+01
156 -1.8332441458700369e+01 1.5348394253275700e+01 4.5396002856170448e+01
7 -5.3397284821519264e+00 -9.2425224285372760e+00 -1.5816693865407508e-01
99 8.6753807359853177e+00 -2.5044944752838582e+01 2.3352468218417176e+01
97 4.7239815153863107e+00 5.7705072237674415e-01 1.1438840131109669e+00
177 8.9556899485809058e+00 1.2048998717299927e+01 1.3696571282490197e+01