LAMMPS data file via write_data, version 2 Jun 2020, timestep = 1447000

648 atoms
2 atom types

2.0111192537071339e+01 3.8797807462924339e+01 xlo xhi
2.0111192537071339e+01 3.8797807462924339e+01 ylo yhi
1.3915192537069819e+01 3.2601807462924505e+01 zlo zhi

Masses

1 15.9994
2 1.00794

Atoms # atomic

2 2 2.0504845154253001e+01 2.2623332377581352e+01 1.7501665599556713e+01 0 0 0
520 1 2.2272273827798557e+01 2.3582333752512930e+01 1.6556504523042683e+01 0 0 1
627 2 2.3407117300046075e+01 2.2649755536606769e+01 1.5967977488766831e+01 1 1 1
433 1 2.3976780843918526e+01 2.2079898392908820e+01 1.5461393122533243e+01 0 0 1
521 2 2.1757603882082236e+01 2.3995484530803594e+01 1.5876874585283630e+01 0 0 1
434 2 2.4346137346957779e+01 2.2684860933439978e+01 1.4816560721461389e+01 0 0 1
447 2 2.2928218767103083e+01 2.1155591270387184e+01 1.4658945671721982e+01 -1 1 1
522 2 2.2586818095380377e+01 2.4297343178525473e+01 1.7129444592236140e+01 0 0 1
445 1 2.2286213420878845e+01 2.0379394678945459e+01 1.4434282974597933e+01 -1 1 1
1 1 2.0306427428588297e+01 2.2040209795572551e+01 1.8242178990101142e+01 0 0 0
398 2 2.5113878751300657e+01 2.1108677199825582e+01 1.6557597713639655e+01 0 1 0
49 1 2.8238892423758706e+01 2.3781990992256116e+01 1.7153980677188812e+01 0 0 0
50 2 2.8737195210380793e+01 2.4416130009458122e+01 1.7839965998268418e+01 0 0 0
396 2 2.8881236014624839e+01 2.0750187336414747e+01 1.4335823563286787e+01 0 1 0
326 2 2.5872241268027494e+01 2.4236270238651645e+01 1.4541328679403527e+01 0 0 0
327 2 2.7001998144645668e+01 2.4397273594809509e+01 1.5927415526201466e+01 0 0 0
498 2 2.9067955621845456e+01 2.2244869352206653e+01 1.6218381147355700e+01 1 0 1
171 2 2.7743368129295142e+01 2.3183300590961437e+01 1.7755078211543847e+01 0 1 0
285 2 2.6157160663369645e+01 2.1560604971764942e+01 1.8477019767975744e+01 0 0 0
397 1 2.5588069159089549e+01 2.0597294754620144e+01 1.7275829775817215e+01 0 1 0
496 1 2.9605335524324147e+01 2.1819441905535168e+01 1.5572414930770009e+01 1 0 1
497 2 3.0333508686986601e+01 2.1350311308393056e+01 1.6028260607970608e+01 1 0 1
528 2 3.1281512333551333e+01 2.4197060317804695e+01 1.4722085449697403e+01 0 0 1
527 2 3.0308094551309789e+01 2.3023154757216620e+01 1.4546242555331924e+01 0 0 1
471 2 3.1683662798056435e+01 2.1493244624981390e+01 1.7672069083105324e+01 0 0 2
469 1 3.1520653511025550e+01 2.0703035889224395e+01 1.7094811194413140e+01 0 0 2
246 2 3.3652103088084949e+01 2.2646014152325868e+01 1.8304870512294752e+01 0 0 0
526 1 3.0884556157489090e+01 2.3624554111002130e+01 1.4021364710429973e+01 0 0 1
53 2 3.3214980297912547e+01 2.4464167878749493e+01 1.5981759204353699e+01 0 0 0
196 1 3.3861450972998455e+01 2.0307430680595747e+01 1.5855642850120544e+01 0 1 0
470 2 3.2434008533475478e+01 2.0649680554011542e+01 1.6770252636126823e+01 0 0 2
195 2 3.8400977817974663e+01 2.1230818363243642e+01 1.7958379898232419e+01 0 1 0
181 1 3.4583510629415031e+01 2.3690738604208615e+01 1.7142747608723042e+01 0 1 0
142 1 3.6173129247763214e+01 2.2179158117413564e+01 1.5666929046641432e+01 0 1 0
182 2 3.5157810458352536e+01 2.3152531057464010e+01 1.6466573965802421e+01 0 1 0
183 2 3.5184906251689291e+01 2.4358125495831942e+01 1.7586356772039302e+01 0 1 0
144 2 3.6671868886257400e+01 2.1385948477808569e+01 1.6044773673848628e+01 0 1 0
143 2 3.6778333716293204e+01 2.2538846822077815e+01 1.4934476536428249e+01 0 1 0
65 2 3.8664004989312261e+01 2.4764884075239923e+01 1.4840315011139559e+01 0 0 0
197 2 3.4430865379359417e+01 2.1073840416292008e+01 1.5584602803863543e+01 0 1 0
88 1 3.7399122718427527e+01 2.0391380545744045e+01 1.7306171385628183e+01 -1 1 0
64 1 2.0625112648632992e+01 2.5317017530912587e+01 1.5329437575108527e+01 1 0 0
149 2 2.3906598372466600e+01 2.5884244015226535e+01 1.7618699216054875e+01 0 1 0
82 1 2.3687264133281094e+01 2.8497184178011629e+01 1.5700981665298327e+01 0 0 0
83 2 2.4186830503676717e+01 2.9122821479514720e+01 1.5197666679321111e+01 0 0 0
12 2 2.4286054685010342e+01 2.7603114230698367e+01 1.6073326629914959e+01 0 0 0
348 2 2.2711553366948106e+01 2.7630074298917588e+01 1.4210371965986115e+01 1 1 0
551 2 2.0821093715679634e+01 2.9165063445451274e+01 1.8068447798028313e+01 0 0 0
419 2 2.1819550606607002e+01 2.6422999933937348e+01 1.4389388930505916e+01 1 1 0
185 2 2.2884333353304942e+01 2.9367049091156399e+01 1.6650599758129449e+01 0 0 0
148 1 2.3425407504915587e+01 2.5280783723853915e+01 1.8212728058052960e+01 0 1 0
325 1 2.6334085533086736e+01 2.4829676657580048e+01 1.5353256245938610e+01 0 0 0
334 1 2.5008907574689420e+01 2.6522059616039261e+01 1.6602144936614053e+01 0 0 0
336 2 2.5402303862460993e+01 2.5877500792722664e+01 1.5945272382371877e+01 0 0 0
335 2 2.5833024478862583e+01 2.6830011134756756e+01 1.7123301805458617e+01 0 0 0
32 2 2.8149006012614215e+01 2.8154134320410918e+01 1.6373351766353714e+01 0 0 0
297 2 2.7254896650211464e+01 2.5748817020244154e+01 1.4116529694407093e+01 0 0 0
320 2 2.8094299913707751e+01 2.6965188782401167e+01 1.4607075169914337e+01 0 0 0
220 1 2.6774608699074122e+01 2.7860832228849588e+01 1.7829296037873718e+01 0 0 0
222 2 2.6253939139487983e+01 2.8593909151221272e+01 1.7935979340193366e+01 0 0 0
31 1 2.8922453600914132e+01 2.7876928483925347e+01 1.5874144414682499e+01 0 0 0
9 2 2.9275676946057111e+01 2.8660711048437136e+01 1.5432246011639286e+01 0 0 0
52 1 3.2530105238372194e+01 2.5020131805097893e+01 1.5622421843056099e+01 0 0 0
477 2 3.0879906438934796e+01 2.6331793835824243e+01 1.7695650187335630e+01 0 0 0
475 1 3.1294609716728694e+01 2.6952318050548278e+01 1.7052705789872086e+01 0 0 0
476 2 3.0479700774751251e+01 2.7280813329291878e+01 1.6670144647355507e+01 0 0 0
54 2 3.2098278780012841e+01 2.5663712145558833e+01 1.6210119246205771e+01 0 0 0
188 2 3.2347580927666776e+01 2.8266425840556956e+01 1.7470287227266173e+01 0 0 0
187 1 3.2796097855088952e+01 2.9043996994972019e+01 1.7863803091677582e+01 0 0 0
495 2 3.3439398252241716e+01 2.6343500096320454e+01 1.4660501577206057e+01 0 0 1
66 2 3.8788582100465817e+01 2.5750391678923471e+01 1.6066983270499520e+01 0 0 0
474 2 3.8291183640496335e+01 2.7015883922312618e+01 1.7928313836284900e+01 0 0 0
548 2 3.5558519449632740e+01 2.7567255063983065e+01 1.5159311829727388e+01 -1 0 1
410 2 3.6505265171380699e+01 2.5848536040501415e+01 1.8464825976418872e+01 0 0 0
472 1 3.7739595297007511e+01 2.6337215589287517e+01 1.7434963078112968e+01 0 0 0
473 2 3.7115002001223949e+01 2.6921815392824399e+01 1.7003566970322673e+01 0 0 0
547 1 3.6209217993615752e+01 2.7964962191159682e+01 1.5739929393256460e+01 -1 0 1
549 2 3.6629513660220731e+01 2.8624574594597515e+01 1.5071342761959080e+01 -1 0 1
324 2 3.5924559162401373e+01 2.9104756558664029e+01 1.7242508819520765e+01 0 -1 0
493 1 3.4281198288637597e+01 2.6777757639677258e+01 1.4407954623296776e+01 0 0 1
184 1 2.1973928879755793e+01 2.9662450195664412e+01 1.6924712744101701e+01 0 0 0
186 2 2.1469190813139669e+01 3.0107278938990355e+01 1.6164609009502040e+01 0 0 0
507 2 2.1660444701954887e+01 3.2403363028684460e+01 1.5970967945813486e+01 0 0 0
537 2 2.0499697774417665e+01 3.1640974686266190e+01 1.4280500046072934e+01 0 0 1
559 1 2.0594727205395085e+01 3.1189322331631324e+01 1.5173116758812462e+01 0 0 1
602 2 2.1553960175715119e+01 3.3543731371726906e+01 1.6990759046483888e+01 0 0 0
601 1 2.2196801507670916e+01 3.3179364549918802e+01 1.6394860047958502e+01 0 0 0
584 2 2.4475522493790510e+01 3.3476105532703478e+01 1.6549547496309017e+01 0 0 0
519 2 2.2445475654332405e+01 3.0907489019598401e+01 1.8161977022125086e+01 0 0 1
576 2 2.3052809895794457e+01 3.3249314390269532e+01 1.4814676818769030e+01 1 0 1
583 1 2.5282923869136287e+01 3.3874330822237198e+01 1.6177651135412567e+01 0 0 0
225 2 2.4883952854480636e+01 3.0774147049341440e+01 1.7854675656982309e+01 -1 0 0
545 2 2.5918867959732328e+01 3.2975168142988508e+01 1.4931107775999667e+01 1 -1 1
248 2 2.5615719056752880e+01 3.0375334547785940e+01 1.6503071930745651e+01 -1 0 0
544 1 2.6678723685979001e+01 3.2356789528621327e+01 1.4684120934300205e+01 1 -1 1
546 2 2.6175826522188455e+01 3.1527240851022963e+01 1.4428508526832644e+01 1 -1 1
247 1 2.5776194870882691e+01 3.0560519501582920e+01 1.7443094552279057e+01 -1 0 0
262 1 2.5263016097701296e+01 3.0086040217972119e+01 1.4542337949076325e+01 0 0 0
614 2 2.7539986699503075e+01 3.2341356212779800e+01 1.6402162629551203e+01 0 0 1
613 1 2.8203383813580146e+01 3.2789041884045432e+01 1.6926692277220333e+01 0 0 1
615 2 2.8515757980460421e+01 3.2110813004425673e+01 1.7500646051770818e+01 0 0 1
366 2 2.9198220942134327e+01 3.0407549825409362e+01 1.7876428055818511e+01 0 0 0
364 1 2.8393310525721972e+01 3.0182155868155704e+01 1.8444065370859807e+01 0 0 0
365 2 2.7556840679142191e+01 3.0157653362296763e+01 1.7851906889718411e+01 0 0 0
134 2 3.0707172136408825e+01 3.0536035994673909e+01 1.6505607459448470e+01 0 -1 0
189 2 3.2177422023454398e+01 2.9756614761370457e+01 1.7880582312357237e+01 0 0 0
441 2 2.9495822488803658e+01 3.1028396282287364e+01 1.4631813431593502e+01 0 0 1
463 1 3.0014169244981780e+01 3.0225083917134000e+01 1.4641219459394929e+01 0 0 1
464 2 3.0926574793650641e+01 3.0426600661264487e+01 1.4346641966510726e+01 0 0 1
346 1 3.3470313994477323e+01 3.3045000991226075e+01 1.5464349167417950e+01 -1 -1 0
276 2 3.4086156350719548e+01 3.2264200802746572e+01 1.5442361785674814e+01 -1 -1 0
270 2 3.2088556386876569e+01 3.3199791299779108e+01 1.6464288916471759e+01 1 -1 1
347 2 3.3490473726117422e+01 3.3423463599378323e+01 1.4555215442172701e+01 -1 -1 0
268 1 3.1296018446999202e+01 3.3366676295738493e+01 1.6939767652955290e+01 1 -1 1
269 2 3.1604713360738909e+01 3.3733934724520545e+01 1.7726832678895388e+01 1 -1 1
135 2 3.0830004208328937e+01 3.1925045579648987e+01 1.7241948052748871e+01 0 -1 0
133 1 3.0712419394590029e+01 3.0971147273666830e+01 1.7421590280925496e+01 0 -1 0
305 2 3.3093067844939640e+01 3.0670659032856285e+01 1.4079154816098219e+01 -1 0 1
5 2 3.5128339963831415e+01 3.0355868586125293e+01 1.5006920543296074e+01 0 -1 0
6 2 3.4228049640803114e+01 2.9762873019836849e+01 1.6042845086856580e+01 0 -1 0
4 1 3.4307663630626777e+01 3.0521719618105017e+01 1.5426830513253357e+01 0 -1 0
395 2 3.4858122051756474e+01 2.9770644970762781e+01 1.8143335661408585e+01 0 -1 0
560 2 3.8364919699965597e+01 3.1084122724766587e+01 1.5386999096809307e+01 -1 0 1
585 2 3.5719334124087368e+01 3.1817006825222499e+01 1.6762734798985001e+01 0 0 1
607 1 3.5959547583597455e+01 3.2571044976519609e+01 1.7300436924692193e+01 0 0 1
394 1 3.5821737917778464e+01 2.9786375009014584e+01 1.7899170471579179e+01 0 -1 0
608 2 3.5219571305810987e+01 3.2520395442705762e+01 1.7984090218686838e+01 0 0 1
532 1 3.8545708737053417e+01 3.3715771203833782e+01 1.8103459713309594e+01 0 0 1
534 2 3.7695229588838473e+01 3.3475761611087535e+01 1.7645379506561383e+01 0 0 1
16 1 3.7025709037407665e+01 3.0190377100138434e+01 1.4018241517815092e+01 -1 -1 0
228 2 2.1161177697054590e+01 3.8111042362034439e+01 1.5318307018193400e+01 0 -1 1
299 2 2.1206238682323985e+01 3.7024446523119636e+01 1.6394291095753353e+01 0 -1 1
314 2 2.2865352890167308e+01 3.6721861851275349e+01 1.7607729723947429e+01 0 0 0
313 1 2.2509036069849103e+01 3.5842035148637116e+01 1.7344236918442760e+01 0 0 0
219 2 2.2853536160164175e+01 3.5741211044656680e+01 1.6476574806014224e+01 0 0 0
298 1 2.0572413920723626e+01 3.7416773100055906e+01 1.5770705149349798e+01 0 -1 1
345 2 2.4097788318118813e+01 3.8589125073304977e+01 1.7850236351290089e+01 1 0 0
295 1 2.3502759981382845e+01 3.8014729895819798e+01 1.8320746173770686e+01 0 0 0
446 2 2.2728054050925820e+01 3.8267441707549310e+01 1.4124434841426659e+01 -1 0 1
633 2 2.5439674087202491e+01 3.4548997476009127e+01 1.6950080130040416e+01 1 0 0
29 2 2.8280707832426394e+01 3.4167582438164459e+01 1.5980604998520951e+01 0 0 1
30 2 2.7151968542395906e+01 3.4634484826660717e+01 1.4992430861981930e+01 0 0 1
28 1 2.8007483494512474e+01 3.4862709660009074e+01 1.5330956546803796e+01 0 0 1
399 2 2.5955955722964561e+01 3.8563630377099024e+01 1.6784552177511767e+01 0 0 0
642 2 2.6258862563165660e+01 3.6680342696069260e+01 1.4541959937751606e+01 1 0 1
641 2 2.7353895313518702e+01 3.6605903828238226e+01 1.5566149645627767e+01 1 0 1
640 1 2.6801485568476849e+01 3.7266710314862621e+01 1.5141657569976099e+01 1 0 1
129 2 2.8953557560457341e+01 3.5167199280273316e+01 1.8255591263804511e+01 0 0 0
13 1 2.5616387172705728e+01 3.5995443516665659e+01 1.8137953104336042e+01 0 -1 0
251 2 2.7910733930083826e+01 3.8288351743307139e+01 1.4482828288206214e+01 0 -1 0
14 2 2.6563798187443133e+01 3.6170690496561548e+01 1.8315338797823451e+01 0 -1 0
35 2 3.0874848379475317e+01 3.4848943437640983e+01 1.5387607870831696e+01 0 -1 0
180 2 2.9749976182417001e+01 3.5535987372575569e+01 1.4784661662864455e+01 0 0 0
34 1 3.0724796515142138e+01 3.5668162074526165e+01 1.4884929547281995e+01 0 -1 0
198 2 3.3509923019687143e+01 3.8590126166211832e+01 1.5022794831319016e+01 0 0 0
616 1 3.3707250832004306e+01 3.5297920716142926e+01 1.3969883940663239e+01 0 0 1
68 2 3.0847871689618977e+01 3.8269247016263570e+01 1.8193520348585089e+01 1 0 0
449 2 3.5237383682181942e+01 3.4456253775706969e+01 1.6565570323266119e+01 0 -1 1
618 2 3.4284676533364085e+01 3.5109868460947041e+01 1.4733294582650391e+01 0 0 1
450 2 3.5108661806987655e+01 3.5966326403434046e+01 1.6931397508369855e+01 0 -1 1
90 2 3.7958321041220515e+01 3.8377738421963308e+01 1.6999391254049261e+01 -1 0 0
89 2 3.6583939607289992e+01 3.8666313173813414e+01 1.7692157004978135e+01 -1 0 0
448 1 3.5134062491264132e+01 3.5394845990652065e+01 1.6196027695879586e+01 0 -1 1
11 2 3.6674520107161300e+01 3.6013630812119345e+01 1.5475958215816012e+01 -1 -1 0
156 2 3.7937022718015811e+01 3.6668666293712377e+01 1.4846336062134347e+01 -1 0 0
224 2 3.4540315258848302e+01 3.8182178062284429e+01 1.7161018771037824e+01 -1 -2 0
223 1 3.5171141300433199e+01 3.7903826223738655e+01 1.7877738389801621e+01 -1 -2 0
374 2 3.6854982245515089e+01 3.6127458888893003e+01 1.8299723102484162e+01 -1 0 1
373 1 3.7763876948167891e+01 3.6229315274386913e+01 1.8508846175781315e+01 -1 0 1
375 2 3.8242205578133635e+01 3.5413031288002202e+01 1.8269383785093506e+01 -1 0 1
10 1 3.7214849367986353e+01 3.6065497002932226e+01 1.4669441135008956e+01 -1 -1 0
131 2 2.1434170258912797e+01 2.1368527080960021e+01 1.9105996132105414e+01 1 1 0
408 2 2.2845670622005319e+01 2.1641368760209964e+01 2.0760777138566876e+01 1 1 0
406 1 2.3283054055915692e+01 2.2112047719640987e+01 2.1524496933510147e+01 1 1 0
215 2 2.2202250783819856e+01 2.2507945161600489e+01 2.2421475493920035e+01 1 1 0
407 2 2.3741979228202712e+01 2.2878781200383703e+01 2.1002088015353838e+01 1 1 0
405 2 2.4388136481026137e+01 2.4514802037489694e+01 1.9648547565518339e+01 0 1 0
130 1 2.1867534257981053e+01 2.0721557629086121e+01 1.9744644842042657e+01 1 1 0
467 2 2.0450418158180963e+01 2.4325348966845990e+01 2.2172595283007315e+01 1 0 0
214 1 2.1609479468842878e+01 2.3043587214369825e+01 2.3034968676641586e+01 1 1 0
261 2 2.4327469695172589e+01 2.1216589902884387e+01 2.2321843726893832e+01 0 0 0
60 2 2.1205269332383409e+01 2.0188395559077247e+01 2.0215569044483004e+01 1 1 0
403 1 2.4980252678009318e+01 2.3923499847487985e+01 2.0177134392673910e+01 0 1 0
283 1 2.6719914408217655e+01 2.2156853094754677e+01 1.9124401600018746e+01 0 0 0
404 2 2.5459144085162421e+01 2.4510036020755223e+01 2.0724149646991357e+01 0 1 0
284 2 2.6072254399994371e+01 2.2590966618194656e+01 1.9757120230651896e+01 0 0 0
332 2 2.7748229701714031e+01 2.1085793710226536e+01 1.9787783641007167e+01 1 1 0
239 2 2.8697584339267046e+01 2.3071068442148778e+01 2.2731230820500294e+01 0 0 0
333 2 2.8536780992156110e+01 2.0873442632694431e+01 2.0979017108154618e+01 1 1 0
331 1 2.8288468986745698e+01 2.0351020947416782e+01 2.0201533152358770e+01 1 1 0
259 1 2.4947587414052428e+01 2.0659769158040501e+01 2.2872488868747926e+01 0 0 0
244 1 3.2910450243729287e+01 2.2344289078434652e+01 1.8914984652289029e+01 0 0 0
118 1 2.9574210703337577e+01 2.2151464668297386e+01 2.1721605608915379e+01 0 1 0
245 2 3.3205102389170932e+01 2.1462577492779772e+01 1.9350389826185697e+01 0 0 0
579 2 3.2036886550066576e+01 2.3270880922571717e+01 1.9869316389464093e+01 0 1 0
119 2 2.9927198477123437e+01 2.1437137277706416e+01 2.2280285318550696e+01 0 1 0
120 2 3.0311914008060999e+01 2.2649435524302906e+01 2.1316274076228517e+01 0 1 0
457 1 3.1326190953754740e+01 2.3638722451497898e+01 2.0463827358627558e+01 0 0 0
458 2 3.1927133237432031e+01 2.3965898619156519e+01 2.1206670514756603e+01 0 0 0
321 2 3.3683996133017750e+01 2.3723537221054361e+01 2.2832574370443542e+01 0 0 0
166 1 3.3890898697935114e+01 2.0205148514541264e+01 2.0079331663733036e+01 0 1 0
612 2 3.8016704833092845e+01 2.4338360464143442e+01 2.1040955403728582e+01 0 1 0
206 2 3.7673439678156285e+01 2.2779960463913572e+01 1.9724706393263045e+01 0 1 0
309 2 3.5993823655346119e+01 2.2144294391959956e+01 2.1615275406181137e+01 -2 0 0
205 1 3.7031265204407688e+01 2.3136009607922396e+01 2.0327599265019366e+01 0 1 0
207 2 3.6414643101969382e+01 2.3679436442882125e+01 1.9790145356853881e+01 0 1 0
307 1 3.5647551883394740e+01 2.1460931891248954e+01 2.2310355904507485e+01 -2 0 0
308 2 3.6336611156667303e+01 2.0810834706169505e+01 2.2590442279019445e+01 -2 0 0
344 2 3.4614461700400405e+01 2.2434348022377613e+01 2.3158309285542934e+01 0 0 0
167 2 3.4443412411366225e+01 2.0388018785150020e+01 2.0869147294154157e+01 0 1 0
550 1 2.0376469147792438e+01 2.8435666073047724e+01 1.8587542670317685e+01 0 0 0
150 2 2.2834889434974851e+01 2.5763815653329036e+01 1.8819089620342226e+01 0 1 0
204 2 2.1064911836328491e+01 2.7261195416013436e+01 1.9583129149403142e+01 1 1 0
58 1 2.1629348279725104e+01 2.6708869573157326e+01 2.0160655051133133e+01 1 0 0
59 2 2.0965471917795821e+01 2.6252375941503672e+01 2.0750009906288373e+01 1 0 0
121 1 2.2352401403604681e+01 2.8443070685604717e+01 2.2687874654383506e+01 0 -1 -1
122 2 2.2196480586824812e+01 2.8039460155429211e+01 2.1826498887254690e+01 0 -1 -1
27 2 2.2328545540737636e+01 2.9402348472685418e+01 2.2562792289214375e+01 0 -1 -1
302 2 2.6787129088540070e+01 2.4981747387537354e+01 2.2647370967671471e+01 0 0 0
221 2 2.7300540152531958e+01 2.7781363346094803e+01 1.8662690992624256e+01 0 0 0
301 1 2.6481271617686176e+01 2.5568488575238341e+01 2.1919693902346893e+01 0 0 0
109 1 2.8078588599601154e+01 2.6978740234082810e+01 1.9964625247596331e+01 0 0 0
303 2 2.5859965528265064e+01 2.6189386181842600e+01 2.2366504423414632e+01 0 0 0
110 2 2.7559725408308768e+01 2.6331518823541156e+01 2.0474596753264994e+01 0 0 0
111 2 2.8520325293574551e+01 2.7594714445411213e+01 2.0649661933621186e+01 0 0 0
643 1 2.9030179417567183e+01 2.8655037525978809e+01 2.1886058769705791e+01 0 0 0
645 2 2.8359220513668522e+01 2.8443061817742397e+01 2.2557773961531002e+01 0 0 0
644 2 2.8650661104425836e+01 2.9449750454712788e+01 2.1520874457502412e+01 0 0 0
555 2 2.6015580435914394e+01 2.9220446893584409e+01 2.1523144002729804e+01 1 0 0
363 2 3.0543703763591072e+01 2.4786329103683727e+01 1.9401320878075122e+01 0 1 0
241 1 3.0036334371822321e+01 2.5282573933790118e+01 1.8741011899725006e+01 0 0 0
242 2 2.9462157557755305e+01 2.5829616602253328e+01 1.9331793502506780e+01 0 0 0
515 2 3.3761751097987428e+01 2.7712595131257395e+01 2.0005297255379237e+01 -1 0 0
316 1 3.3148584485990682e+01 2.5229356162424459e+01 2.2081668000387307e+01 0 0 0
317 2 3.2355799874743909e+01 2.5755686720580652e+01 2.2306896438546548e+01 0 0 0
318 2 3.3645750479923890e+01 2.5775613814106627e+01 2.1446746411967247e+01 0 0 0
459 2 3.0368694838466212e+01 2.7361762104953101e+01 2.2712762846660304e+01 0 0 0
553 1 3.0977651127102931e+01 2.6806539524132400e+01 2.3243657335316751e+01 0 0 0
466 1 3.8488991794653586e+01 2.4887706398122695e+01 2.1728525319274784e+01 0 0 0
552 2 3.8329284560360946e+01 2.8799103674220643e+01 1.9120268566701061e+01 -1 0 0
409 1 3.5780510459937140e+01 2.5324057251664783e+01 1.8893829558847042e+01 0 0 0
514 1 3.4381476382559050e+01 2.7082474098834240e+01 2.0381803878430627e+01 -1 0 0
315 2 3.5229799545550989e+01 2.5923005668641849e+01 1.9474806374020204e+01 0 0 0
372 2 3.7635050675110058e+01 2.5788480857684949e+01 2.2878615774764047e+01 -1 1 0
444 2 3.5181854276681392e+01 2.7545553738391870e+01 2.0886087199118020e+01 -1 0 0
254 2 3.6196843748609560e+01 2.7625495328100612e+01 2.2685549898634775e+01 0 0 0
253 1 3.5994606029097746e+01 2.8326435537284208e+01 2.2035266019097389e+01 0 0 0
255 2 3.5161767470276665e+01 2.8775882371638609e+01 2.2391358678607130e+01 0 0 0
243 2 3.7094127627079232e+01 2.9423697757395225e+01 2.1044003385437883e+01 0 0 0
517 1 2.3159301350782140e+01 3.1284965953055732e+01 1.8766318442773578e+01 0 0 1
518 2 2.3139518235832689e+01 3.2296743886033020e+01 1.8738509879312240e+01 0 0 1
57 2 2.3430078006284546e+01 3.1241205220160836e+01 2.1749572014365754e+01 1 0 -1
8 2 2.2533117704392389e+01 3.0856514055334998e+01 2.0636999313971305e+01 0 0 -1
7 1 2.2597218391069010e+01 3.0783014427675901e+01 2.1561240070033481e+01 0 0 -1
323 2 2.4730566312067523e+01 3.3311573821138033e+01 2.1817907691378920e+01 0 0 0
322 1 2.4765957008169476e+01 3.2406863380455221e+01 2.2165668441907290e+01 0 0 0
154 1 2.3425586570009880e+01 3.3869837368476482e+01 1.9231160965812204e+01 0 0 -1
539 2 2.1526120656247329e+01 3.1979845315371861e+01 2.2511363490057199e+01 0 0 1
538 1 2.0809530238241610e+01 3.2583192893015656e+01 2.2966473494448383e+01 0 0 1
468 2 2.1293597019278039e+01 3.3434571518441118e+01 2.3013752475827989e+01 0 0 1
577 1 2.5710692367855451e+01 3.0095328123008439e+01 2.1204113611438903e+01 0 0 0
578 2 2.5683326898850879e+01 3.0561914465005501e+01 2.2024572068258998e+01 0 0 0
252 2 2.5524209029375211e+01 3.2279332323881903e+01 2.2825950573220130e+01 0 0 0
102 2 2.8323293606307089e+01 3.0970096335225691e+01 1.9919726269759764e+01 0 0 0
100 1 2.8417703986862847e+01 3.1059589778981120e+01 2.0904845656274436e+01 0 0 0
101 2 2.7427823867329280e+01 3.0996100485659191e+01 2.1131045451333840e+01 0 0 0
249 2 2.8037917832527857e+01 3.3738718505964584e+01 2.1243982353184055e+01 0 0 0
424 1 3.3425952987829390e+01 3.0486521165102069e+01 2.0703364061524599e+01 1 0 0
426 2 3.2500329018080748e+01 3.0900943515428860e+01 2.0792600322594740e+01 1 0 0
425 2 3.3386450088561048e+01 2.9907328761270019e+01 1.9895861567595727e+01 1 0 0
106 1 3.1057957060087805e+01 3.1689543956701939e+01 2.1086095018609061e+01 0 0 -1
36 2 3.0124815353763246e+01 3.1653651470860943e+01 2.0964964110404978e+01 0 0 -1
107 2 3.1234116637878984e+01 3.2187377134869877e+01 2.1921448109503402e+01 0 0 -1
257 2 3.1365025038359633e+01 3.3063110109377448e+01 2.0113787609166600e+01 0 -1 0
256 1 3.1832807615171284e+01 3.3765396175568142e+01 1.9565207948240236e+01 0 -1 0
540 2 3.3503701519413305e+01 2.9954119126260913e+01 2.2188900116458612e+01 0 0 0
378 2 3.4086052952473409e+01 3.2061665792856680e+01 1.9789675902030037e+01 -1 0 1
377 2 3.3427895645469263e+01 3.3368991286563265e+01 1.9336233156649367e+01 -1 0 1
610 1 3.4048386460849855e+01 2.9862486511054161e+01 2.3051072618074134e+01 0 0 0
533 2 3.8669517656949367e+01 3.3204757206731522e+01 1.8939809898390980e+01 0 0 1
338 2 3.6735126380344433e+01 2.9992444387392297e+01 1.9576191339566574e+01 0 0 0
376 1 3.4308487687585568e+01 3.2907501201489339e+01 1.9362221969252300e+01 -1 0 1
337 1 3.7393655106057388e+01 2.9984627404895022e+01 2.0308618927644218e+01 0 0 0
274 1 3.8248227797087637e+01 3.2430073018964315e+01 2.0590876903946217e+01 -1 -1 1
275 2 3.8592560445814883e+01 3.2395281312606272e+01 2.1551436568197460e+01 -1 -1 1
420 2 3.7799638705589686e+01 3.1547807815209833e+01 2.0501394541404064e+01 -1 0 1
21 2 3.5142107430919495e+01 3.3361175857194823e+01 2.0802875945222482e+01 -1 0 0
20 2 3.6744788492629908e+01 3.3403632071345363e+01 2.1173324932983611e+01 -1 0 0
19 1 3.5833691529043392e+01 3.3567980753503569e+01 2.1558198415842668e+01 -1 0 0
435 2 3.5870529220949038e+01 3.2499373786267533e+01 2.2873690959297427e+01 -1 0 0
155 2 2.4043517316198983e+01 3.4222463299168730e+01 1.9939052891045876e+01 0 0 -1
84 2 2.3070400508827955e+01 3.4526966996152879e+01 1.8634163388252261e+01 0 0 -1
296 2 2.2741546700600228e+01 3.8505004385995775e+01 1.8702287560666509e+01 0 0 0
290 2 2.3787374261331390e+01 3.5788392917677484e+01 2.1729270229452201e+01 0 -1 0
516 2 2.1718379459194530e+01 3.7094629605121213e+01 2.1850277046407282e+01 0 0 0
586 1 2.2446003800373948e+01 3.6864060297664935e+01 2.2480050214267941e+01 0 0 0
439 1 2.0232897641859491e+01 3.7660810947816920e+01 2.0685917921862636e+01 0 0 0
289 1 2.4577491077723192e+01 3.5342837371385649e+01 2.1483003186038946e+01 0 -1 0
587 2 2.2073992327795690e+01 3.6089321928722654e+01 2.2934913050551696e+01 0 0 0
79 1 2.8599625162135677e+01 3.5932395671876193e+01 1.8740230053194317e+01 -1 0 0
80 2 2.9325919994309945e+01 3.6538569272013120e+01 1.8740359968045507e+01 -1 0 0
267 2 2.5225948144559979e+01 3.5929187402765919e+01 2.1092047537513984e+01 1 -1 0
15 2 2.5102294147426530e+01 3.6675312960706258e+01 1.8608604712741577e+01 0 -1 0
272 2 2.8721275427095442e+01 3.4833164120325407e+01 2.0402472763411211e+01 0 0 0
271 1 2.8850853121403816e+01 3.4321480263856969e+01 2.1246304584523436e+01 0 0 0
535 1 2.6480402426194001e+01 3.7322437903950970e+01 2.1362147728604103e+01 0 0 0
536 2 2.7171002228345671e+01 3.7952700775487742e+01 2.0997766090445552e+01 0 0 0
513 2 2.7055633912874796e+01 3.6903002468857750e+01 2.2041560496993650e+01 0 0 0
260 2 2.5430748553975810e+01 3.8692466274574755e+01 2.2285044109710846e+01 0 -1 0
438 2 2.9226742369829886e+01 3.6113945265128010e+01 2.2543421775291044e+01 0 0 0
436 1 2.8647617499983326e+01 3.6595741220275002e+01 2.3094155191029820e+01 0 0 0
67 1 3.0387009276846889e+01 3.7858692974969067e+01 1.9022382535009204e+01 1 0 0
69 2 2.9974498382464070e+01 3.8634269764109959e+01 1.9438077036574324e+01 1 0 0
258 2 3.1471977974925672e+01 3.4519953877450845e+01 2.0018593098476757e+01 0 -1 0
580 1 3.2296757108172564e+01 3.7142734015751195e+01 2.0790619537536223e+01 -2 0 0
581 2 3.1605470091031542e+01 3.7287363697697799e+01 2.0042837336629020e+01 -2 0 0
582 2 3.1980443023642753e+01 3.7192754734434573e+01 2.1684637276256559e+01 -2 0 0
168 2 3.3164191333918978e+01 3.8253133103582897e+01 2.0324542669029949e+01 0 0 0
273 2 3.4802686547453227e+01 3.8207669828686065e+01 1.8821986913438433e+01 0 -2 0
440 2 3.8602284466343697e+01 3.6966910838960189e+01 2.0071231686027339e+01 -1 0 0
489 2 3.8248758329389808e+01 3.7735159034787415e+01 2.1437071632893907e+01 0 0 0
55 1 3.7332675735104814e+01 3.8025935328683914e+01 2.3009397639603790e+01 0 -1 0
413 2 3.6008380481856967e+01 3.5074682597747625e+01 2.2787815523518056e+01 0 0 0
216 2 2.1048160004005258e+01 2.2358492255475650e+01 2.3465717382364296e+01 1 1 0
203 2 2.3650709302110705e+01 2.1922719549317723e+01 2.7577173660095358e+01 1 1 0
453 2 2.0729858574253608e+01 2.0930642944401193e+01 2.5008507739557416e+01 0 0 0
639 2 2.2744749939051939e+01 2.4098971994505472e+01 2.4111929581143318e+01 1 0 0
132 2 2.2228242575506339e+01 2.1228594487293257e+01 2.7627824925175688e+01 1 1 0
501 2 2.4108692577081779e+01 2.3557718756865970e+01 2.5620527018428941e+01 1 0 1
637 1 2.3352489433752478e+01 2.4727810927034270e+01 2.4538989899358860e+01 1 0 0
430 1 2.1641977209573806e+01 2.0438722580072895e+01 2.6206513002909528e+01 1 1 0
432 2 2.2437780053036949e+01 2.0291087853580606e+01 2.5686757459350222e+01 1 1 0
499 1 2.4660075484206452e+01 2.3222192151769388e+01 2.6391860024914084e+01 1 0 1
94 1 2.0566977848681447e+01 2.4524737115105708e+01 2.7805379819430772e+01 0 0 -1
238 1 2.8149283530733882e+01 2.3596417757537498e+01 2.3431641569168018e+01 0 0 0
393 2 2.9417202235440836e+01 2.0246085383520025e+01 2.4576323957036816e+01 0 1 0
240 2 2.7512367602980326e+01 2.3011053776666770e+01 2.3843024404202147e+01 0 0 0
428 2 2.6099288061611233e+01 2.1432198754976660e+01 2.4094888267439174e+01 0 1 0
429 2 2.7198615892864538e+01 2.1244994515872989e+01 2.5173529640238275e+01 0 1 0
427 1 2.6597836685588629e+01 2.1895981304935965e+01 2.4753714211562301e+01 0 1 0
500 2 2.5407803147234205e+01 2.2797184929078700e+01 2.5895838031985523e+01 1 0 1
293 2 2.9279159328613940e+01 2.4610193467662146e+01 2.4228959678891666e+01 0 0 0
597 2 2.5595149671665720e+01 2.4498496403113897e+01 2.7255586468690410e+01 0 1 0
286 1 2.8524236897500082e+01 2.0473730026065290e+01 2.6007182692557308e+01 1 1 0
287 2 2.8653745852971646e+01 2.1265234381708016e+01 2.6594206523774822e+01 1 1 0
571 1 2.9341583306389580e+01 2.2371980316189891e+01 2.7734540789906632e+01 0 1 0
343 1 3.3887679303353806e+01 2.3003361933898542e+01 2.3455205962388952e+01 0 0 0
415 1 3.0040362495268489e+01 2.0254391432250991e+01 2.3813067664272488e+01 0 1 0
416 2 3.0827103828776437e+01 2.0738659282844321e+01 2.4222623653001293e+01 0 1 0
71 2 3.0566334321146755e+01 2.3212548975442303e+01 2.7077398523730302e+01 0 0 -1
70 1 3.1285988450798186e+01 2.3574156470844891e+01 2.6507894696484922e+01 0 0 -1
631 1 3.2205387567654682e+01 2.1636065438842852e+01 2.4952660994679881e+01 0 1 0
72 2 3.0805027274268628e+01 2.4107797597602705e+01 2.5866634854964477e+01 0 0 -1
632 2 3.1841899765495334e+01 2.2285536945814968e+01 2.5579146734183801e+01 0 1 0
609 2 3.2700394538158754e+01 2.2158335447886881e+01 2.4284821811877350e+01 0 1 0
210 2 3.3845034038046833e+01 2.0827208009863210e+01 2.5695275097775554e+01 0 2 1
74 2 3.2270462546022344e+01 2.4396752113402179e+01 2.7547117080329713e+01 -1 0 -1
451 1 3.8627480864158237e+01 2.1188438480410753e+01 2.4380807872411136e+01 -1 0 0
452 2 3.8200180981738988e+01 2.1867721211933297e+01 2.4987821812808832e+01 -1 0 0
179 2 3.8363433363452472e+01 2.3476640616579214e+01 2.6608141049362292e+01 -1 0 -1
178 1 3.7619749378449711e+01 2.3114633508707207e+01 2.6160777887287004e+01 -1 0 -1
108 2 3.7181301317217049e+01 2.2599785131187893e+01 2.6862105745026497e+01 -1 0 -1
411 2 3.5547635380778047e+01 2.1288269689580687e+01 2.7271307764470698e+01 0 1 -1
125 2 3.4923742016009385e+01 2.4148178171352008e+01 2.4594897527154689e+01 0 0 -1
126 2 3.6349003052511335e+01 2.4174470044675935e+01 2.5349737435487139e+01 0 0 -1