LAMMPS data file via write_data, version 2 Jun 2020, timestep = 2712000

648 atoms
2 atom types

1.9997956728722183e+01 3.8911043271275496e+01 xlo xhi
1.9997956728722183e+01 3.8911043271275496e+01 ylo yhi
1.3801956728719350e+01 3.2715043271276024e+01 zlo zhi

Masses

1 15.9994
2 1.00794

Atoms # atomic

266 2 2.2528981208821410e+01 2.3654504181295277e+01 1.5340213487161838e+01 0 0 0
588 2 2.2101162001181969e+01 2.2142734949933040e+01 1.7173165044747456e+01 0 0 1
442 1 2.1457279531295185e+01 2.2632960642649078e+01 1.6623017774482008e+01 0 -1 1
443 2 2.0918594185158426e+01 2.3170691384941513e+01 1.7241036706104477e+01 0 -1 1
523 1 2.2891676735443223e+01 2.0809328023358731e+01 1.7878332117183149e+01 -1 0 0
265 1 2.3104651293487564e+01 2.3945830601074707e+01 1.4617118687844444e+01 0 0 0
344 2 2.0636099319948066e+01 2.1736429608862782e+01 1.5465301715891865e+01 0 0 1
524 2 2.3596151779425483e+01 2.1164300663929257e+01 1.8449692506862231e+01 -1 0 0
343 1 2.0283243838302322e+01 2.1398240874371911e+01 1.4604254765972046e+01 0 0 1
387 2 2.2574599591145169e+01 2.4520032013417932e+01 1.4037309563840482e+01 0 1 0
96 2 2.6879915362349497e+01 2.2152478743304322e+01 1.5337599760316134e+01 -1 0 0
459 2 2.8680735648095414e+01 2.3350353997222840e+01 1.4961336288961011e+01 1 0 1
253 1 2.5832083948045515e+01 2.0991856689969932e+01 1.4631602834054647e+01 1 0 1
94 1 2.7413534826706147e+01 2.2622825457929494e+01 1.6015980148928254e+01 -1 0 0
95 2 2.6789718245161914e+01 2.3035885542777578e+01 1.6733829607692055e+01 -1 0 0
561 2 2.8274658170448497e+01 2.1531154625416818e+01 1.7348747472821085e+01 1 0 1
255 2 2.5368906843465084e+01 2.1363046687799873e+01 1.3841265486238864e+01 1 0 1
254 2 2.6516949970630417e+01 2.0482836456394207e+01 1.4155969772126637e+01 1 0 1
223 1 2.6106359483605715e+01 2.3934167036724681e+01 1.7999654500163306e+01 0 -2 0
511 1 2.8948697992963705e+01 2.0878948469273652e+01 1.7608975117125055e+01 0 0 1
553 1 2.9274870194821670e+01 2.3966025889131483e+01 1.4533534675805340e+01 1 0 1
512 2 2.9347857446089904e+01 2.1469158632145486e+01 1.8341383074662101e+01 0 0 1
626 2 2.4806413988497916e+01 2.0053369972482617e+01 1.5597665332878972e+01 1 -1 0
273 2 2.6810253772981554e+01 2.4497117155047686e+01 1.8349053903115717e+01 1 -2 0
393 2 3.3426714001923621e+01 2.3399404862671673e+01 1.7282678643879088e+01 1 0 0
277 1 3.2445236724868003e+01 2.1250827454963982e+01 1.4726481852927664e+01 1 1 0
279 2 3.2731112003942457e+01 2.1855183254858172e+01 1.5428613115564410e+01 1 1 0
278 2 3.1661283589492125e+01 2.0790160221240551e+01 1.5092177122554013e+01 1 1 0
547 1 3.2120139903226317e+01 2.4169312781252280e+01 1.8330415786761375e+01 -1 0 1
415 1 3.3848111569926758e+01 2.2902222206617910e+01 1.6488662914680539e+01 1 0 0
5 2 2.9987101176036180e+01 2.0035436606412926e+01 1.6572879222296496e+01 0 0 0
554 2 2.9784715374609551e+01 2.4341995307898394e+01 1.5236249316237910e+01 1 0 1
218 2 3.3146794662645362e+01 2.0030042066929227e+01 1.3870208315919474e+01 0 1 -1
568 1 3.8827708932624731e+01 2.4302858957696817e+01 1.8211579206605958e+01 0 2 0
416 2 3.4475546705772821e+01 2.2263862188910593e+01 1.6939382025933075e+01 1 0 0
575 2 3.4986619219743439e+01 2.3909509797718187e+01 1.5541560181846187e+01 0 0 1
621 2 3.6305592678434309e+01 2.0410615597002170e+01 1.7247857766907359e+01 0 1 0
619 1 3.5789422321486811e+01 2.1142901562904495e+01 1.7767894810365963e+01 0 1 0
574 1 3.5538527334311240e+01 2.4426720276420927e+01 1.4950584562253695e+01 0 0 1
620 2 3.5036049682394832e+01 2.0730871339948035e+01 1.8247246617899229e+01 0 1 0
321 2 3.8620826120882917e+01 2.2064105920092512e+01 1.4227779262315089e+01 -1 0 1
576 2 3.6011614704872329e+01 2.3918624130586814e+01 1.4340782015354508e+01 0 0 1
569 2 3.8139424170319231e+01 2.4624852428323848e+01 1.7526710126349293e+01 0 2 0
324 2 3.7862783214363795e+01 2.0179334324236894e+01 1.5572595908187180e+01 0 0 1
291 2 2.3827266814990807e+01 2.4910511367869056e+01 1.6296140040477145e+01 0 0 1
480 2 2.2335138565133434e+01 2.7804785134916145e+01 1.7079473015438964e+01 -1 -2 1
479 2 2.3598302447060703e+01 2.6929898109677772e+01 1.7445592083957351e+01 -1 -2 1
478 1 2.2878425906456005e+01 2.7500562435071306e+01 1.7827956363063219e+01 -1 -2 1
374 2 2.0659870986850297e+01 2.8253982825175108e+01 1.5613570407547954e+01 0 1 1
373 1 2.1289869175524942e+01 2.8851466054577646e+01 1.6158695487028595e+01 0 1 1
614 2 2.0212832357858829e+01 2.6710203742093888e+01 1.4267871493369050e+01 1 0 0
385 1 2.4482915953586687e+01 2.5567036001522183e+01 1.6605707734585060e+01 0 0 1
375 2 2.0803355237218447e+01 2.9438024968209604e+01 1.6680937933093407e+01 0 1 1
386 2 2.5154954678886824e+01 2.5098776994483845e+01 1.7046896317037216e+01 0 0 1
36 2 2.5449432045935254e+01 2.6679133803032897e+01 1.5607625376115553e+01 0 0 -1
107 2 2.6724004777643941e+01 2.7553348195859254e+01 1.5471616408217258e+01 0 0 -1
106 1 2.5978159339619403e+01 2.7154311045766711e+01 1.4947525684110513e+01 0 0 -1
410 2 2.8746665643411667e+01 2.7790045867738900e+01 1.7397227953254546e+01 0 0 0
589 1 2.7684381892314189e+01 2.8615904430098617e+01 1.6288919140008659e+01 -1 0 1
369 2 2.7050850309945531e+01 2.6002265120743584e+01 1.3915567603222701e+01 1 1 1
590 2 2.6992920985410407e+01 2.9111041568735466e+01 1.6833421938340226e+01 -1 0 1
409 1 2.9268121953853136e+01 2.7287278339435126e+01 1.8058529089382926e+01 0 0 0
591 2 2.8276772558273251e+01 2.9304556804432455e+01 1.5963868439883260e+01 -1 0 1
81 2 2.5204649520935263e+01 2.8397376235108670e+01 1.3832286141217249e+01 0 0 0
71 2 3.1424189057818477e+01 2.5297520553153607e+01 1.6793591213209577e+01 0 0 -1
315 2 2.9738072215324795e+01 2.6695634199707456e+01 1.7529081376251508e+01 0 0 0
70 1 3.0781098791774710e+01 2.5731089992646694e+01 1.6176597450581582e+01 0 0 -1
72 2 3.1435872983985931e+01 2.6194552711968054e+01 1.5578401511150631e+01 0 0 -1
274 1 3.2030105115821172e+01 2.7183050316359658e+01 1.4571230351748520e+01 0 -1 2
191 2 3.3041662278213096e+01 2.8245760379545139e+01 1.6092201521258346e+01 1 1 0
275 2 3.2705159251550612e+01 2.6676098125617312e+01 1.4119842250871402e+01 0 -1 2
190 1 3.3632296421979731e+01 2.8804579567010428e+01 1.6693011517330334e+01 1 1 0
192 2 3.4062052830766234e+01 2.8217970432456219e+01 1.7373012321344486e+01 1 1 0
420 2 3.1403222002911534e+01 2.7455064134694901e+01 1.3871671498599879e+01 0 0 2
613 1 3.8528978282897725e+01 2.7092238077915127e+01 1.4926905934270216e+01 0 0 0
572 2 3.6574507725950788e+01 2.5036267005224303e+01 1.6026218450388956e+01 -1 1 1
571 1 3.7201389036546445e+01 2.5434209036264896e+01 1.6721038522754224e+01 -1 1 1
573 2 3.7737118151966747e+01 2.6076418099917877e+01 1.6211474230933074e+01 -1 1 1
413 2 3.5991962939169923e+01 2.6659614398847172e+01 1.7949704266633567e+01 1 0 0
412 1 3.5294286334411979e+01 2.7208575483708444e+01 1.8312719990483771e+01 1 0 0
615 2 3.8003479895454468e+01 2.7844620618818524e+01 1.4551908405924848e+01 0 0 0
418 1 3.6866779152052928e+01 2.9119469143387910e+01 1.3855745315962558e+01 0 1 0
425 2 2.2517361590227083e+01 2.9942353573723857e+01 1.5381396302146012e+01 1 1 0
424 1 2.3042147849059564e+01 3.0601914259705055e+01 1.4848905968885182e+01 1 1 0
426 2 2.3542707816317709e+01 3.1092116301479354e+01 1.5443201474092200e+01 1 1 0
116 2 2.4116113881706994e+01 3.2344615551044356e+01 1.7066845682153371e+01 0 0 -1
301 1 2.2848880996930134e+01 3.3450396116288225e+01 1.7876261681813755e+01 0 0 0
231 2 2.0469370973043450e+01 3.3382355411176832e+01 1.4265245303538522e+01 -1 -2 1
115 1 2.4691180575803116e+01 3.1835225575773585e+01 1.6366086125661706e+01 0 0 -1
229 1 1.9997993909498039e+01 3.3935176275593982e+01 1.4902469247232423e+01 -1 -2 1
303 2 2.2411253911557360e+01 3.4123202613429207e+01 1.7398220644913533e+01 0 0 0
302 2 2.2174908928936240e+01 3.2939333104476098e+01 1.8338770372748318e+01 0 0 0
402 2 2.2120498655306811e+01 3.1633203963829498e+01 1.3919994651898204e+01 1 0 0
117 2 2.5190759235817922e+01 3.2615468618127473e+01 1.6013942028933055e+01 0 0 -1
165 2 2.5448189549433934e+01 3.0717514369671687e+01 1.7113812207236506e+01 0 0 0
356 2 2.9200310124841018e+01 3.0709608617270568e+01 1.4425887349971239e+01 1 0 0
163 1 2.5931660010664896e+01 3.0094293557823995e+01 1.7811195239047276e+01 0 0 0
67 1 2.6035333829913277e+01 3.3542654099596170e+01 1.4785845432131525e+01 1 0 1
68 2 2.6819558462556479e+01 3.3033001255196758e+01 1.4427244615837774e+01 1 0 1
481 1 2.9013540470611957e+01 3.3799057628317186e+01 1.7871313206805329e+01 1 -1 1
603 2 2.8413682145100225e+01 3.3112248954443103e+01 1.8206437468418937e+01 1 0 1
164 2 2.5256719384405116e+01 2.9838605826143585e+01 1.8496207407262350e+01 0 0 0
355 1 2.9591905993764627e+01 3.0148687058035563e+01 1.5050165167710093e+01 1 0 0
482 2 2.9888016764627594e+01 3.3318234110457084e+01 1.7832858464198065e+01 1 -1 1
357 2 3.0016972477729126e+01 2.9481385087365588e+01 1.4434919829739552e+01 1 0 0
465 2 3.2910581697184675e+01 2.9942579566997253e+01 1.7704103124191853e+01 0 0 0
339 2 3.1483160882246771e+01 3.1577757680816511e+01 1.7004664378581197e+01 0 1 0
361 1 3.0948339417694122e+01 3.2135175418974541e+01 1.6438903200122478e+01 -1 1 0
362 2 3.0389153876754918e+01 3.1461605632611636e+01 1.5905611886548263e+01 -1 1 0
260 2 3.1466166507292847e+01 3.3457807140649223e+01 1.5601154811010828e+01 -1 -1 0
259 1 3.2093422386007937e+01 3.3955079355113376e+01 1.5033256661829599e+01 -1 -1 0
261 2 3.2584881499868850e+01 3.3282346953052510e+01 1.4452160073625015e+01 -1 -1 0
487 1 3.2279389085882030e+01 3.0497810611638180e+01 1.8239043340659876e+01 0 0 0
47 2 3.3948469310064951e+01 3.1908278768243957e+01 1.3954060603082885e+01 0 -1 1
295 1 3.8653076706445972e+01 3.0112853238197253e+01 1.8160548929411977e+01 -1 0 0
186 2 3.4574115255357412e+01 3.0157041237648407e+01 1.5611181601355403e+01 -1 0 0
330 2 3.7694578748303925e+01 3.2699628243159282e+01 1.6025874211063162e+01 0 -1 0
328 1 3.7072747997912657e+01 3.2124800282827671e+01 1.6525257434778212e+01 0 -1 0
184 1 3.4936079732117612e+01 3.0932135677321391e+01 1.5127148981886361e+01 -1 0 0
185 2 3.5718471105153888e+01 3.1302146201265927e+01 1.5640670271738076e+01 -1 0 0
329 2 3.7572451512986788e+01 3.1673345958085985e+01 1.7206113520339500e+01 0 -1 0
537 2 3.5755049695823942e+01 3.3305016239405674e+01 1.7524522231425600e+01 -1 0 1
559 1 3.5149432127955180e+01 3.3856468076471785e+01 1.8021522005618248e+01 -1 0 1
419 2 3.6065858559982161e+01 2.9550964859716974e+01 1.4190564636268046e+01 0 1 0
531 2 2.3897713158721938e+01 3.8892132623341155e+01 1.6823268895195287e+01 1 -2 0
230 2 2.0674895949103256e+01 3.4521522418629132e+01 1.5522542991719442e+01 -1 -2 1
454 1 2.1635200853114416e+01 3.5167262331148365e+01 1.6431941525507742e+01 0 -1 0
456 2 2.2093224528577796e+01 3.5684906411476277e+01 1.5690502463935767e+01 0 -1 0
592 1 2.2879257194269037e+01 3.6616797004652682e+01 1.4519432458597022e+01 0 -1 1
593 2 2.3421905398551306e+01 3.7195339231244290e+01 1.5107403459112712e+01 0 -1 1
455 2 2.0866756271398007e+01 3.5681700612378627e+01 1.6858602005033344e+01 0 -1 0
594 2 2.3539184865610295e+01 3.6102759970085266e+01 1.4040892280424224e+01 0 -1 1
625 1 2.4138651755683362e+01 3.8403460796395535e+01 1.6014964537046268e+01 1 -2 0
69 2 2.6470375019141017e+01 3.4209517847026561e+01 1.5302983221090084e+01 1 0 1
497 2 2.8246641607308341e+01 3.4872093809001584e+01 1.6815259461545338e+01 2 -1 1
496 1 2.7610542161318076e+01 3.5420301751512170e+01 1.6237564115497676e+01 2 -1 1
98 2 2.6555004719168451e+01 3.6070566515929798e+01 1.7182163140960760e+01 1 0 -1
498 2 2.8057331511724307e+01 3.5929869714005349e+01 1.5441019722433980e+01 2 -1 1
3 2 2.5408360142107831e+01 3.7159009477078925e+01 1.7093376029469404e+01 1 0 -1
97 1 2.5761305320742828e+01 3.6520497303247389e+01 1.7708383181548406e+01 1 0 -1
87 2 2.8177914223632897e+01 3.7878457285394774e+01 1.3804865172014939e+01 -1 0 0
289 1 2.8970455824341911e+01 3.6662782499089801e+01 1.4614668898318579e+01 -1 -1 1
527 2 2.7935284530964701e+01 3.8537994551329106e+01 1.8521065679177962e+01 -1 0 1
4 1 3.0346887021073385e+01 3.8485397633318101e+01 1.5738413156447036e+01 0 -1 0
267 2 2.9458397339124680e+01 3.7218440291704226e+01 1.5277132160467072e+01 0 -1 1
567 2 3.3134621870477680e+01 3.4928280736999824e+01 1.5813423478414913e+01 0 0 0
6 2 3.1007182738453388e+01 3.7816264616824469e+01 1.6149264193460727e+01 0 -1 0
383 2 3.2450830787065442e+01 3.6513272608971079e+01 1.7128709583228911e+01 0 1 1
382 1 3.1900828276623518e+01 3.7271130308515595e+01 1.7547609421841361e+01 0 1 1
290 2 2.9612791986371960e+01 3.6017565232993178e+01 1.4198844881053246e+01 -1 -1 1
384 2 3.1251985361537621e+01 3.6753444695040940e+01 1.8105741861298991e+01 0 1 1
565 1 3.3700617372776875e+01 3.5499132883249629e+01 1.6412346251214885e+01 0 0 0
566 2 3.4097458922861868e+01 3.4765372914960324e+01 1.7003937014423219e+01 0 0 0
249 2 3.1539724550397935e+01 3.4951621766713558e+01 1.4117596250382128e+01 0 -1 1
411 2 3.4149046229173862e+01 3.7641728704989234e+01 1.4024690591038080e+01 1 1 -1
199 1 3.8797594813979778e+01 3.6686102079091626e+01 1.7695393868168829e+01 -1 -1 1
394 1 3.7346310715434683e+01 3.8441007229708589e+01 1.6168350791964567e+01 0 -1 1
177 2 3.8457944250673748e+01 3.7348678396122097e+01 1.7129415510303051e+01 -1 -1 1
395 2 3.6597036231657370e+01 3.7906735710645194e+01 1.5733806810275059e+01 0 -1 1
167 2 3.4833572969305195e+01 3.6416178388667788e+01 1.5553786678070082e+01 0 0 0
166 1 3.5551651521217927e+01 3.6851155683811484e+01 1.5055365010210560e+01 0 0 0
168 2 3.6034433264231033e+01 3.6114844483973727e+01 1.4666468586169495e+01 0 0 0
200 2 3.8041366494643079e+01 3.6349138829773622e+01 1.8290693770489082e+01 -1 -1 1
545 2 3.7882647085128468e+01 3.4710611430467793e+01 1.3987065350545198e+01 0 -2 1
525 2 2.2359202966450997e+01 2.0329206342728874e+01 1.8533718363117956e+01 -1 0 0
226 1 2.1234658940308282e+01 2.2519830626646659e+01 2.2445075236358690e+01 -1 0 0
227 2 2.0855232462085503e+01 2.1865164991699068e+01 2.1746035396074518e+01 -1 0 0
372 2 2.1847440904212025e+01 2.3080386362779407e+01 2.1885002175832106e+01 -1 1 0
264 2 2.4274645034523516e+01 2.3010681309640802e+01 2.0137776243935939e+01 0 1 -1
445 1 2.3214236753390090e+01 2.4110118028771435e+01 2.0978758673856738e+01 -2 1 1
638 2 2.0443324048126069e+01 2.0480271725207469e+01 2.0187634955806924e+01 0 1 0
262 1 2.4546265105240739e+01 2.2330415390091410e+01 1.9536354275711428e+01 0 1 -1
446 2 2.3656535516942121e+01 2.4485098324432304e+01 2.1696805424199312e+01 -2 1 1
224 2 2.5592812744105700e+01 2.3492047745800779e+01 1.8671460513803780e+01 0 -2 0
263 2 2.5107228927946409e+01 2.1744933346011873e+01 2.0079125864977943e+01 0 1 -1
195 2 2.7085527868556809e+01 2.0922595850871982e+01 2.1347284001462079e+01 0 1 -1
1 1 2.6328628424182146e+01 2.0657170366856597e+01 2.0776655161016706e+01 -1 0 -1
322 1 2.7880881362999538e+01 2.2148686817829127e+01 2.2513273672343317e+01 -2 1 1
38 2 2.8632418069344691e+01 2.3227725821234817e+01 2.1764187071093016e+01 1 0 0
37 1 2.9022928636281655e+01 2.4051420986097156e+01 2.1248998326952282e+01 1 0 0
252 2 2.7206301150419854e+01 2.2788128919447697e+01 2.2906192512115620e+01 -2 1 1
549 2 3.1592408789215717e+01 2.3479556443609450e+01 1.8716191734485754e+01 -1 0 1
155 2 3.0003036473282123e+01 2.2811167617725651e+01 2.0085130495884570e+01 -1 1 -1
84 2 3.1200459356646604e+01 2.1809301706087226e+01 2.0175797490701605e+01 -1 1 -1
154 1 3.0539235211845558e+01 2.2150807127125294e+01 1.9562511961581652e+01 -1 1 -1
521 2 3.2901284443923259e+01 2.1873766048694897e+01 2.1573884454304068e+01 -1 0 1
520 1 3.2404929158207423e+01 2.1151771791838687e+01 2.1111902049685838e+01 -1 0 1
522 2 3.3007276332032923e+01 2.0837612891494064e+01 2.0489917448566388e+01 -1 0 1
39 2 2.9716381571503291e+01 2.4569943977519792e+01 2.1710313906298413e+01 1 0 0
108 2 3.1509512338994483e+01 2.0318604727438558e+01 2.2160007103374763e+01 -1 0 -2
208 1 3.3856476674135770e+01 2.2487342757967610e+01 2.2540800673958017e+01 0 2 1
548 2 3.2675055761174150e+01 2.4582552867707122e+01 1.9013435149039864e+01 -1 0 1
637 1 3.8799236827648038e+01 2.1022985117128457e+01 2.0807360480464325e+01 -1 1 0
570 2 3.8288318546509466e+01 2.3768718561006242e+01 1.8792134319163541e+01 0 2 0
318 2 3.6466986579504308e+01 2.2069273100713730e+01 1.8915919773238137e+01 0 -1 0
209 2 3.4341109942654299e+01 2.3179510141961394e+01 2.2050513955128981e+01 0 2 1
317 2 3.7668190669852521e+01 2.2102092812727808e+01 2.0070453942172136e+01 0 -1 0
316 1 3.6945301512974467e+01 2.2624496512879745e+01 1.9657407620176436e+01 0 -1 0
605 2 3.6078301025760858e+01 2.3415344218456696e+01 2.0664405556416444e+01 -1 2 1
604 1 3.5566786160068467e+01 2.4094865144234500e+01 2.1230777395015785e+01 -1 2 1
639 2 3.8280912398489271e+01 2.0420436248745201e+01 2.1401906603828042e+01 -1 1 0
539 2 3.5226812405855313e+01 2.1342411272184115e+01 2.3180712250482788e+01 -1 1 1
447 2 2.2752313250703757e+01 2.4796090083616065e+01 2.0399018359407926e+01 -2 1 1
396 2 2.2243238097992137e+01 2.6441596542777813e+01 1.8871827797605391e+01 1 1 0
251 2 2.1030112809704658e+01 2.5271383591018353e+01 1.8887053452711594e+01 1 0 0
360 2 2.3715499203263377e+01 2.8560432319767003e+01 1.8988414485965553e+01 0 -1 0
250 1 2.1642328067341484e+01 2.5838177710711488e+01 1.9435912814197387e+01 1 0 0
543 2 2.0594132163402438e+01 2.8459466446349936e+01 2.1619115429684296e+01 1 -1 -1
49 1 2.4514418757178156e+01 2.5755056174458659e+01 2.2920675991490661e+01 1 -1 0
542 2 2.0519400355357789e+01 2.7134946733003105e+01 2.0550677247294416e+01 1 -1 -1
646 1 2.1170297690913291e+01 2.9439762668649578e+01 2.2630094265097064e+01 1 -1 0
358 1 2.4201750925331666e+01 2.9145437792253226e+01 1.9623368381935709e+01 0 -1 0
359 2 2.4583140294158206e+01 2.8480868357016583e+01 2.0229377293313803e+01 0 -1 0
541 1 2.0041295888135831e+01 2.7845859666156734e+01 2.1027660855945754e+01 1 -1 -1
171 2 2.4956449251829333e+01 2.6382232608406191e+01 2.2292251729110689e+01 1 0 0
602 2 2.8064568533020552e+01 2.6289028855215623e+01 1.9240955228111286e+01 0 1 1
507 2 2.8141823001110758e+01 2.5040839845534077e+01 2.0324549420846566e+01 0 1 1
601 1 2.7524119966543438e+01 2.5676901150265081e+01 1.9790700171762566e+01 0 1 1
533 2 2.6525015387508695e+01 2.6941889516363986e+01 2.0405395451813028e+01 1 0 0
532 1 2.5852667748471159e+01 2.7338363229266893e+01 2.0993762368510406e+01 1 0 0
534 2 2.6395762387482947e+01 2.7848998465037958e+01 2.1558558776907319e+01 1 0 0
10 1 2.7578600676706756e+01 2.9032829225517013e+01 2.2325305769403585e+01 -1 -1 -1
299 2 2.8957669881960499e+01 2.7979439739444118e+01 2.3152217627369705e+01 0 -1 1
428 2 3.0190183770163333e+01 2.8228589669269454e+01 1.9062902528547514e+01 -1 0 1
138 2 3.1288805256876024e+01 2.6279464279729300e+01 2.2050408031429356e+01 0 1 -1
245 2 3.1741538826935432e+01 2.7845530786556356e+01 2.0709389600016582e+01 0 -1 0
244 1 3.2378230878586486e+01 2.7297297873902998e+01 2.1286961888729824e+01 0 -1 0
246 2 3.2808871785851210e+01 2.6539955408241816e+01 2.0758024472966063e+01 0 -1 0
158 2 3.2926120325506567e+01 2.8646602324144570e+01 2.2680820331879396e+01 -1 0 1
427 1 3.0770689766942674e+01 2.8919681800527400e+01 1.9634494640874109e+01 -1 0 1
136 1 3.0818446916314326e+01 2.5573527953126110e+01 2.2510266145572945e+01 0 1 -1
157 1 3.3625704335994655e+01 2.9137355615071506e+01 2.3191336730849699e+01 -1 0 1
76 1 3.3866441259339865e+01 2.5499177293904530e+01 1.9866269849528447e+01 1 -1 -1
137 2 3.1413623142744903e+01 2.5131387985750408e+01 2.3085379472350876e+01 0 1 -1
414 2 3.5798397673366026e+01 2.7887092999659465e+01 1.8835771101500637e+01 1 0 0
606 2 3.6166082543689157e+01 2.4762622877082318e+01 2.1644580736858639e+01 -1 2 1
77 2 3.4389380921753187e+01 2.6003895086268322e+01 1.9224059531884183e+01 1 -1 -1
78 2 3.4635104292495846e+01 2.4966237267466376e+01 2.0254004497656940e+01 1 -1 -1
474 2 3.7603827230836977e+01 2.6682030642939313e+01 2.1729410499950628e+01 0 1 -1
630 2 3.7544228418772910e+01 2.8232931768265551e+01 1.9918965057917593e+01 0 0 1
628 1 3.6911366353523498e+01 2.8862503070096579e+01 1.9497026722829482e+01 0 0 1
472 1 3.6995611127306731e+01 2.6108721116086656e+01 2.2222637754747499e+01 0 1 -1
629 2 3.6330907997270828e+01 2.9335224067919974e+01 2.0192914066126999e+01 0 0 1
473 2 3.7493149928514015e+01 2.5659552764099779e+01 2.2932465250905338e+01 0 1 -1
296 2 2.0153348765715577e+01 3.0755688171838109e+01 1.8714874811553376e+01 0 0 0
647 2 2.1734873907061150e+01 3.0136817349362900e+01 2.2270450308055825e+01 1 -1 0
176 2 2.3500858148036890e+01 3.0471335731412651e+01 2.0510341374469508e+01 -1 1 1
633 2 2.1663182400692111e+01 3.1860046131226177e+01 2.0062049888926559e+01 0 0 -1
583 1 2.1054904910840538e+01 3.2207025134493136e+01 1.9392384230230434e+01 -1 0 -1
175 1 2.2891551254851066e+01 3.0966332868656465e+01 2.1033904693837226e+01 -1 1 1
584 2 2.0594351769762671e+01 3.2878338871615483e+01 1.9977085881361560e+01 -1 0 -1
153 2 2.3490675139804075e+01 3.1539406819016747e+01 2.1588460021922792e+01 -1 1 1
556 1 2.4665367323857424e+01 3.1898524144748016e+01 2.2655794426562686e+01 1 0 1
123 2 2.0313788280142859e+01 3.4103346453314124e+01 2.1709219641401681e+01 1 0 0
11 2 2.8199437894296032e+01 2.9646467854032124e+01 2.1925241223174144e+01 -1 -1 -1
156 2 2.7175907133393480e+01 2.9542019456562684e+01 2.3090354067003155e+01 -1 0 -1
558 2 2.5135705498084658e+01 3.2519953446214167e+01 2.2054620729441698e+01 1 0 1
438 2 2.6857623709237103e+01 3.1134936757590808e+01 1.8726193677981620e+01 1 0 0
436 1 2.7465949579316366e+01 3.1809879853380416e+01 1.9208178031668755e+01 1 0 0
437 2 2.6965520113429413e+01 3.2348203320974392e+01 1.9802681755665187e+01 1 0 0
161 2 2.8392122757029330e+01 3.1067947413847378e+01 2.0292776006396952e+01 0 0 -1
598 1 2.6163792607412422e+01 3.3424895178130292e+01 2.1151743041003222e+01 0 0 0
160 1 2.9083160284243654e+01 3.0570790394463643e+01 2.0940389361058255e+01 0 0 -1
599 2 2.6896200445961913e+01 3.4003618841935591e+01 2.1510337374105173e+01 0 0 0
600 2 2.5598799749575605e+01 3.4103795334644587e+01 2.0700462983132670e+01 0 0 0
488 2 3.1660972553719027e+01 2.9847014890866657e+01 1.8594636467091632e+01 0 0 0
429 2 3.0045449408113171e+01 2.9469978083527891e+01 2.0076593323008282e+01 -1 0 1
162 2 2.9595216321154737e+01 3.1267718508235696e+01 2.1262454560809807e+01 0 0 -1
311 2 3.3211916315584773e+01 3.1677326613821201e+01 1.9027691848727816e+01 0 0 -1
24 2 3.1251791481278275e+01 3.3170236336106669e+01 2.1977436483534838e+01 0 0 -1
312 2 3.3045766576362553e+01 3.2883269096902069e+01 2.0085448569784390e+01 0 0 -1
22 1 3.0710359946624276e+01 3.2581467735784116e+01 2.2462854316318115e+01 0 0 -1
310 1 3.3705605404995318e+01 3.2332702793616910e+01 1.9584088594534265e+01 0 0 -1
23 2 3.1359928186068053e+01 3.2030463519672097e+01 2.2989554397890359e+01 0 0 -1
560 2 3.4703858914186512e+01 3.3305567084713132e+01 1.8659554714815314e+01 -1 0 1
345 2 3.7812179844258253e+01 2.9784965333063433e+01 1.8647439357457259e+01 0 0 0
145 1 3.8689495295732641e+01 3.3671873732923281e+01 2.1034630522950462e+01 -1 0 0
597 2 3.4539813630268668e+01 2.9900794447182516e+01 2.1332021409720181e+01 -1 1 1
596 2 3.4651862424458677e+01 3.1276083416098629e+01 2.0421841316416256e+01 -1 1 1
595 1 3.5186400002781085e+01 3.0480785718364636e+01 2.0856214099308445e+01 -1 1 1
486 2 3.6232205008580316e+01 3.1492692858599305e+01 2.1925939212791725e+01 0 0 1
146 2 3.8229239563624475e+01 3.2915178783330077e+01 2.1468583997767517e+01 -1 0 0
484 1 3.6977075829064411e+01 3.1859005437922502e+01 2.2484013768591968e+01 0 0 1
485 2 3.7410444501575938e+01 3.1173073544089036e+01 2.3065312222292828e+01 0 0 1
504 2 2.0866202689771168e+01 3.7652955961619419e+01 1.8874729911237118e+01 -1 0 0
111 2 2.3924591142196370e+01 3.4197365025699696e+01 1.9218835781656587e+01 0 -1 0
502 1 2.1343432739728367e+01 3.8185401196477450e+01 1.9509172952144759e+01 -1 0 0
503 2 2.1733754340735718e+01 3.7654940751044450e+01 2.0145920855043212e+01 -1 0 0
476 2 2.3387973085033529e+01 3.6145760938148314e+01 2.0652684662646546e+01 0 -1 0
475 1 2.2851777743686785e+01 3.6758917893808814e+01 2.1210299472904051e+01 0 -1 0
477 2 2.3340645215839892e+01 3.7351284999615203e+01 2.1874137267479885e+01 0 -1 0
405 2 2.1863396652788673e+01 3.5654527763047973e+01 2.2373720657389335e+01 1 0 -1
403 1 2.1241282934408002e+01 3.5040551414877868e+01 2.2837629875078342e+01 1 0 -1
493 1 2.4416601051831428e+01 3.8416193112754570e+01 2.2996345465611263e+01 0 -1 1
109 1 2.4341408307367871e+01 3.4814870924918694e+01 1.9774438725452011e+01 0 -1 0
110 2 2.4582034666378068e+01 3.5472248299671669e+01 1.9154330788728156e+01 0 -1 0
2 2 2.6665368715846963e+01 3.8810374945888015e+01 2.0091485709104610e+01 -1 -1 -1
495 2 2.4956314024861314e+01 3.8853730905301433e+01 2.2329439139723711e+01 0 -1 1
526 1 2.7502256218437903e+01 3.7872468461398242e+01 1.9140225374398735e+01 -1 0 1
528 2 2.6897686957897804e+01 3.7337633645146077e+01 1.8650390781472900e+01 -1 0 1
234 2 2.8171246553069079e+01 3.6126710891334419e+01 2.2185099023642774e+01 -1 -2 1
422 2 2.8656680616892928e+01 3.7944891894596893e+01 2.0948531056987001e+01 0 1 1
421 1 2.9138285929484383e+01 3.7383522330334806e+01 2.1589923814838965e+01 0 1 1
232 1 2.7763092145091978e+01 3.5400556656413038e+01 2.2706980815332546e+01 -1 -2 1
178 1 3.0982927689982134e+01 3.8742639181668345e+01 2.2879962933846148e+01 -1 -1 -2
562 1 3.2131226215838986e+01 3.4267675943193147e+01 2.0811391373950631e+01 0 -1 0
563 2 3.2693952330401984e+01 3.4785548934132279e+01 2.1374884298062614e+01 0 -1 0
492 2 3.1715445330538742e+01 3.4822899183578976e+01 2.0131974837082552e+01 0 -1 0
423 2 2.9828194091951346e+01 3.8058140067175586e+01 2.1979049063234612e+01 0 1 1
489 2 2.9546827669322390e+01 3.5251236052562021e+01 1.9193119382285911e+01 1 0 0
27 2 3.3286899626051756e+01 3.8107235287121597e+01 1.8841829298341249e+01 0 -1 -1
439 1 3.0277865864141177e+01 3.5762829520602324e+01 1.9504786081223710e+01 0 0 0
440 2 2.9944615030187066e+01 3.6404545130299610e+01 2.0191148695329176e+01 0 0 0
121 1 3.4017997583954340e+01 3.8637541534085315e+01 1.9244572004848141e+01 0 -1 -1
21 2 3.3563251495924064e+01 3.6203824775844275e+01 2.3041496585502291e+01 -1 -1 1
19 1 3.3961545298604413e+01 3.5585846248205002e+01 2.2403859642402207e+01 -1 -1 1
122 2 3.4506170024801186e+01 3.8021421505946343e+01 1.9861532652745030e+01 0 -1 -1
585 2 3.6435056278961270e+01 3.4806156751329254e+01 1.8684293910770382e+01 0 -1 2
608 2 3.7592480512915245e+01 3.4745290844205115e+01 1.9898474769695664e+01 0 -1 2
247 1 3.7299725468096447e+01 3.8194434066071423e+01 2.2393586888372845e+01 -1 0 0
135 2 3.5103332177137460e+01 3.6580954194877236e+01 2.1362443635626388e+01 0 -1 0
133 1 3.5593735759831858e+01 3.7087361971867196e+01 2.0652917438599836e+01 0 -1 0
607 1 3.7003176414382480e+01 3.5397357228037009e+01 1.9301623415566347e+01 0 -1 2
134 2 3.6233370216816205e+01 3.6465535460553852e+01 2.0116655899095548e+01 0 -1 0
248 2 3.6717238637486616e+01 3.7676572483980834e+01 2.1734971707396600e+01 -1 0 0
225 2 3.7754794916033546e+01 3.7675957924210266e+01 2.3097367026055544e+01 -1 0 0
20 2 3.4484307990639905e+01 3.5039502584383094e+01 2.2979474848291034e+01 -1 -1 1
519 2 2.2461273981854433e+01 2.1874970924850889e+01 2.3662172315966899e+01 1 1 1
517 1 2.3042965409408257e+01 2.1347894276343201e+01 2.4266790738977662e+01 1 1 1
518 2 2.3780913078810290e+01 2.1894611221303201e+01 2.4598211355040842e+01 1 1 1
51 2 2.4359952619114189e+01 2.3299169554819859e+01 2.6144284509526763e+01 1 0 -1
193 1 2.3219212624529479e+01 2.4413733451888312e+01 2.7243519575347850e+01 1 1 0
44 2 2.1792544754711294e+01 2.0500926140771721e+01 2.5334646654633115e+01 1 0 0
494 2 2.3869435852598997e+01 2.0139243663717675e+01 2.3488950235087820e+01 0 0 1
269 2 2.0323387331079072e+01 2.0692045872562609e+01 2.6840873093077036e+01 2 0 1
194 2 2.2696073060230592e+01 2.3727508144286592e+01 2.7661773194346644e+01 1 1 0
323 2 2.8424165327338066e+01 2.1780584532417251e+01 2.3345235490208093e+01 -2 1 1
73 1 2.4898428960315947e+01 2.2643640268755952e+01 2.5622573103374123e+01 0 0 -1
74 2 2.5597334001473484e+01 2.3231451113181233e+01 2.5182185023512641e+01 0 0 -1
129 2 2.5632122574463772e+01 2.1851363466368589e+01 2.6761794341766382e+01 0 1 0
79 1 2.6278043003091049e+01 2.1390751114542375e+01 2.7394436989934142e+01 -1 1 0
203 2 2.8760433214404244e+01 2.0592486561088972e+01 2.5124421852536972e+01 1 0 0
80 2 2.6726068111445638e+01 2.0703626137400594e+01 2.6864968784928401e+01 -1 1 0
610 1 2.6471282855677728e+01 2.4069532128302367e+01 2.4127095795511806e+01 0 1 0
181 1 2.9303673185330233e+01 2.4229616855665672e+01 2.7384396608655791e+01 1 0 0
202 1 2.9319338566592954e+01 2.1110031496765075e+01 2.4597123515844068e+01 1 0 0
540 2 2.5721209535780055e+01 2.4636941054858237e+01 2.3853640600816316e+01 0 1 0
183 2 2.8681088394779430e+01 2.3669057235935760e+01 2.7904220539246914e+01 1 0 0
210 2 3.3473952798029003e+01 2.2994381668908922e+01 2.3384857555235765e+01 0 2 1
132 2 3.0043788106515269e+01 2.0553921083907429e+01 2.4201666436908145e+01 1 0 0
501 2 3.0295628439460394e+01 2.2161096999349123e+01 2.5424384340543998e+01 1 0 2
500 2 3.0290896207259948e+01 2.3217250943452679e+01 2.6570220967231144e+01 1 0 2
499 1 3.0880926125911770e+01 2.2787872092738212e+01 2.5910704630047167e+01 1 0 2
243 2 3.1991720295542155e+01 2.3617857413485378e+01 2.4893740313582743e+01 0 0 0
131 2 3.2180431351503344e+01 2.2097058527336568e+01 2.6904035933618044e+01 1 1 0
60 2 3.3206995162947095e+01 2.0714067425977927e+01 2.6703447846214008e+01 1 1 0
130 1 3.2691503413290150e+01 2.1308591835128947e+01 2.7300870981943952e+01 1 1 0
337 1 3.2633202128935437e+01 2.4023320937357166e+01 2.4305231438035705e+01 0 0 0
338 2 3.3258018985763705e+01 2.4562787352415722e+01 2.4751287123441497e+01 0 0 0
555 2 3.8876084092426410e+01 2.3624767558566145e+01 2.3411160347982449e+01 1 0 1
268 1 3.8680082153460816e+01 2.1331317665365653e+01 2.7418751942272472e+01 1 0 1
577 1 3.8454523489211375e+01 2.4327590286078653e+01 2.3908032940212657e+01 0 0 1
468 2 3.6640931881751513e+01 2.0604253358133754e+01 2.3405913525135432e+01 -1 1 1
578 2 3.8128647559110142e+01 2.3858392766218017e+01 2.4694997603920307e+01 0 0 1