LAMMPS data file via write_data, version 2 Jun 2020, timestep = 1447000

648 atoms
2 atom types

2.0094758007404170e+01 3.8814241992591612e+01 xlo xhi
2.0094758007404170e+01 3.8814241992591612e+01 ylo yhi
1.3898758007401339e+01 3.2618241992591614e+01 zlo zhi

Masses

1 15.9994
2 1.00794

Atoms # atomic

594 2 2.2988577720136849e+01 2.3205747244253573e+01 1.5744347822595707e+01 0 0 1
592 1 2.3585153331198036e+01 2.2589481013315051e+01 1.6126737570045844e+01 0 0 1
349 1 2.2232458646030697e+01 2.1411129597480645e+01 1.8541230927680832e+01 1 1 1
351 2 2.2723630302328488e+01 2.1416655229956799e+01 1.7659629094380303e+01 1 1 1
593 2 2.4332683439628347e+01 2.3185920108552061e+01 1.6391048263206930e+01 0 0 1
246 2 2.0491525018580607e+01 2.3115783720632923e+01 1.4920887326131277e+01 0 0 0
18 2 2.2725701779410489e+01 2.4701208523752165e+01 1.7857349964671222e+01 0 0 0
449 2 2.4058701691563790e+01 2.1997172940155064e+01 1.4713371049431617e+01 1 1 1
516 2 2.0817624969941566e+01 2.0602323288845369e+01 1.8558305710862754e+01 0 1 1
505 1 2.6951345969676463e+01 2.3590591039177795e+01 1.4560561604354604e+01 0 0 1
166 1 2.7754916109584403e+01 2.0834739636822622e+01 1.5509373633159292e+01 0 1 0
506 2 2.7214810904610314e+01 2.2654986378370715e+01 1.4494762230683046e+01 0 0 1
514 1 2.5756115402149153e+01 2.3924317570752827e+01 1.6861745847352857e+01 0 0 1
342 2 2.8792509919823928e+01 2.1738309332457060e+01 1.6839055358083463e+01 0 0 0
515 2 2.6266392512708791e+01 2.3867707016294151e+01 1.5943438392527149e+01 0 0 1
444 2 2.6056150597900910e+01 2.3373460012543713e+01 1.7643007429692684e+01 0 0 1
168 2 2.7839796433861146e+01 2.0165290999672777e+01 1.4746423291694535e+01 0 1 0
340 1 2.8865293762551040e+01 2.2072318872980087e+01 1.7741304627629304e+01 0 0 0
167 2 2.7151616038020535e+01 2.0330340476575774e+01 1.6069320907417357e+01 0 1 0
341 2 2.9627094441184173e+01 2.2675450642062124e+01 1.7883623795002602e+01 0 0 0
42 2 3.0548829479543066e+01 2.1667374543034473e+01 1.5031980859152887e+01 0 0 0
491 2 3.3203982368918219e+01 2.3984887854638927e+01 1.6336691973098109e+01 0 0 1
490 1 3.3312097328176776e+01 2.3432325855667898e+01 1.5494512262371360e+01 0 0 1
636 2 3.3341307019698121e+01 2.4064468171023726e+01 1.4729971585570805e+01 0 1 1
82 1 3.2761119675209699e+01 2.4181123833006147e+01 1.8183616364914329e+01 0 -1 -1
12 2 3.1951094251129668e+01 2.4623873396270099e+01 1.8539115954074941e+01 0 -1 -1
41 2 3.1520062579798275e+01 2.2956012075624852e+01 1.4975355418946956e+01 0 0 0
40 1 3.0608960194774966e+01 2.2620464092896860e+01 1.4736730618433512e+01 0 0 0
245 2 3.8643614218810370e+01 2.3674897213398353e+01 1.6270805079890962e+01 -1 0 0
244 1 3.8495802936789616e+01 2.2999853259512069e+01 1.5500196797866662e+01 -1 0 0
552 2 3.6461046051479229e+01 2.3309960167932299e+01 1.7063302554216897e+01 0 1 1
550 1 3.5597290397460796e+01 2.2946688839188830e+01 1.7295701910624185e+01 0 1 1
551 2 3.5062703721523185e+01 2.3261311096096243e+01 1.6611288567511082e+01 0 1 1
471 2 3.7294048760513355e+01 2.2597399730922831e+01 1.4521013579065110e+01 -1 1 1
469 1 3.6497467228213949e+01 2.2115791738371534e+01 1.4118014723625912e+01 -1 1 1
564 2 3.5746189574324625e+01 2.1074000700263856e+01 1.7184473782357358e+01 0 0 0
470 2 3.5879705485059844e+01 2.2818485421873802e+01 1.4016476754347689e+01 -1 1 1
553 1 3.8073527800943722e+01 2.4238971109084005e+01 1.7914743495120213e+01 0 0 1
634 1 3.6010299974088973e+01 2.0101113205090922e+01 1.7333803237223012e+01 0 0 0
635 2 3.6713931312994646e+01 2.0236827252154654e+01 1.8049641853805181e+01 0 0 0
123 2 2.3600177576978780e+01 2.5723656470347319e+01 1.5998374923264038e+01 1 0 0
196 1 2.1326659264395140e+01 2.7437694412200962e+01 1.4983544892048748e+01 1 1 1
146 2 2.2098419241348882e+01 2.5992933083231215e+01 1.6109801569501940e+01 0 0 0
145 1 2.2755200075703215e+01 2.5301573334663551e+01 1.6204340366584596e+01 0 0 0
197 2 2.1681659315711112e+01 2.8205901499336974e+01 1.4494898932518728e+01 1 1 1
228 2 2.4037560001380587e+01 2.9247025642315879e+01 1.6656587233294012e+01 0 0 1
547 1 2.4638449617304332e+01 2.7609491013812924e+01 1.5986585723975040e+01 0 0 1
198 2 2.0303427361071464e+01 2.7435515167509681e+01 1.4998827300414511e+01 1 1 1
590 2 2.1687338640995062e+01 2.8675903768060923e+01 1.8201307485760005e+01 0 0 1
219 2 2.8158338685890726e+01 2.4831546833816773e+01 1.4458779450481622e+01 0 0 0
313 1 2.8723871533199134e+01 2.5606137927829497e+01 1.4490908475138269e+01 0 0 0
549 2 2.5245152762170243e+01 2.7561315304327259e+01 1.5168410170873594e+01 0 0 1
307 1 2.5982611790101600e+01 2.6375270851045531e+01 1.8152625819491618e+01 0 0 0
548 2 2.5227840936195506e+01 2.7274391030209564e+01 1.6649311020016107e+01 0 0 1
192 2 2.7556079119151534e+01 2.7440982625546390e+01 1.7779105669171596e+01 0 1 1
521 2 2.8025133440701818e+01 2.9183693960894125e+01 1.6025393813009668e+01 0 0 1
308 2 2.5852953548844738e+01 2.5485602071417787e+01 1.7723278991022930e+01 0 0 0
112 1 2.6356758489860653e+01 2.7298623719140593e+01 1.3997188093280709e+01 0 0 0
113 2 2.7124907094100145e+01 2.6805762404796766e+01 1.4209572498750905e+01 0 0 0
191 2 2.8968694777447542e+01 2.7203243498147057e+01 1.7055671197125701e+01 0 1 1
190 1 2.8398575418285510e+01 2.7854864857522788e+01 1.7436519959739691e+01 0 1 1
312 2 2.8814091964943856e+01 2.9294163070894385e+01 1.8407676356595470e+01 -1 1 1
569 2 3.0052483359050985e+01 2.5914963695184721e+01 1.5464519382487710e+01 0 1 1
568 1 3.0512210156989905e+01 2.6479278451420711e+01 1.6078778074255240e+01 0 1 1
570 2 3.1300778944731732e+01 2.6046563917492207e+01 1.6563430999168226e+01 0 1 1
558 2 3.0896105011623376e+01 2.7675674021545660e+01 1.4901710133412781e+01 0 -1 0
556 1 3.1123848650743383e+01 2.8139593652624463e+01 1.4066532283374030e+01 0 -1 0
557 2 3.2142036876001761e+01 2.8076498701028761e+01 1.3970421617188380e+01 0 -1 0
428 2 3.3306791333713093e+01 2.5882710303153626e+01 1.7462939714575306e+01 0 0 0
427 1 3.3558008772355358e+01 2.6607981314741945e+01 1.6830905047333609e+01 0 0 0
47 2 3.3559294974648196e+01 2.7134834043534575e+01 1.5262651794334198e+01 0 0 0
46 1 3.3828817448389486e+01 2.7565837013826126e+01 1.4400376960091924e+01 0 0 0
429 2 3.3674802632393899e+01 2.7410044266676522e+01 1.7433508416741589e+01 0 0 0
459 2 3.7877104700938666e+01 2.5203799024391369e+01 1.8204000303074896e+01 0 0 1
633 2 3.6841733558834648e+01 2.7919065595276262e+01 1.5458924271584079e+01 0 0 0
397 1 3.7359799852130806e+01 2.6740664250118975e+01 1.8235970721751773e+01 0 1 0
399 2 3.7317489013180605e+01 2.6761779289501327e+01 1.7263877063767989e+01 0 1 0
583 1 3.7340030872154919e+01 2.7050202585263275e+01 1.5429456695828128e+01 -1 0 0
584 2 3.6789139590617246e+01 2.6403002072054850e+01 1.4810621957100954e+01 -1 0 0
208 1 3.5778579785307365e+01 2.5466871880924714e+01 1.3966739842269213e+01 0 1 1
48 2 3.4319692139210254e+01 2.8301647754140483e+01 1.4766035654260453e+01 0 0 0
209 2 3.4945396634449615e+01 2.5952884448933897e+01 1.4099867928592321e+01 0 1 1
298 1 2.3458110945051246e+01 2.9970575447675877e+01 1.7017082089156627e+01 0 0 1
299 2 2.3308306757245852e+01 3.0555879352004979e+01 1.6330731683355825e+01 0 0 1
232 1 2.2401535551177634e+01 3.2991859706021742e+01 1.6275840732845563e+01 0 0 1
233 2 2.1844229956784574e+01 3.2680140271613780e+01 1.5538888334400246e+01 0 0 1
70 1 2.0916657539816701e+01 3.1590764693955350e+01 1.4285417826746297e+01 1 0 0
234 2 2.3220730556966959e+01 3.3338488838459057e+01 1.5740709610146672e+01 0 0 1
140 2 2.1692365630858546e+01 3.2321016857806249e+01 1.8061459648176704e+01 0 0 -1
305 2 2.4103677318133141e+01 3.0577231986942575e+01 1.8430709037489006e+01 0 0 0
522 2 2.8179922809065658e+01 2.9959403652085506e+01 1.4800530845669790e+01 0 0 1
520 1 2.8143623411988802e+01 3.0122668656978821e+01 1.5756012569828949e+01 0 0 1
364 1 2.5014100159608681e+01 3.3790723354523863e+01 1.5574221982586117e+01 0 1 1
366 2 2.5436407935485839e+01 3.3000485447591110e+01 1.5881860798529498e+01 0 1 1
338 2 2.5589429733539582e+01 3.1149422337403934e+01 1.7529647295880007e+01 1 0 0
243 2 2.6781143499962155e+01 3.1028581107834690e+01 1.6455186604597266e+01 1 0 0
337 1 2.6035802595244263e+01 3.1649204207078032e+01 1.6733075412771203e+01 1 0 0
74 2 2.7772666229196027e+01 3.3532645748058400e+01 1.8206782182154416e+01 -1 0 -1
73 1 2.8352552367259207e+01 3.2907500092426432e+01 1.7641461979453165e+01 -1 0 -1
51 2 2.7753643329162994e+01 3.2223239133310798e+01 1.7402674851581935e+01 0 0 -1
311 2 2.9082821565074372e+01 3.0818889954909181e+01 1.8114221084900219e+01 -1 1 1
365 2 2.5570795442696507e+01 3.4034976978887670e+01 1.4822601043718709e+01 0 1 1
510 2 3.1244973041774408e+01 2.9701896056310552e+01 1.5020877876376158e+01 -1 0 0
509 2 3.0169518099526272e+01 3.0796200106978748e+01 1.5291662978546356e+01 -1 0 0
437 2 3.2170624985885084e+01 3.0854074264722573e+01 1.6631138018999771e+01 -1 -1 0
644 2 2.9957431897970473e+01 3.3175496230536581e+01 1.8227252934561889e+01 1 0 1
438 2 3.1802091969992937e+01 3.1832382174658076e+01 1.7810290264855485e+01 -1 -1 0
436 1 3.2582639330403865e+01 3.1414801136513294e+01 1.7353367344706907e+01 -1 -1 0
508 1 3.1129966252626097e+01 3.0684939237561753e+01 1.5061025031081943e+01 -1 0 0
460 1 3.0782663724400912e+01 3.3499331657525104e+01 1.4707356515263635e+01 0 -1 1
461 2 3.1230090799217052e+01 3.3189270171430309e+01 1.5520872920248310e+01 0 -1 1
221 2 3.3346723373457095e+01 2.9988688746676878e+01 1.8220168115209681e+01 -1 0 -1
462 2 3.1457997091442905e+01 3.3889964967807714e+01 1.4122297274574496e+01 0 -1 1
130 1 3.5706493966790894e+01 2.9526571149992840e+01 1.5571016719950874e+01 0 0 0
60 2 3.5311346258911598e+01 2.9782588039563677e+01 1.6417105956199723e+01 0 0 0
440 2 3.7972772376146729e+01 3.1495301821700160e+01 1.4728741696092303e+01 -1 -1 1
439 1 3.7076516503254041e+01 3.1602812449888290e+01 1.5173883133761217e+01 -1 -1 1
489 2 3.6705516764451602e+01 3.2473471545654753e+01 1.4937119886056045e+01 0 -1 1
131 2 3.6283641883717365e+01 3.0344539825325036e+01 1.5323383252075775e+01 0 0 0
497 2 3.6326969367314248e+01 3.1630350606265566e+01 1.7114856986667956e+01 0 0 1
496 1 3.6037170389128534e+01 3.1313922634205632e+01 1.8017258500894386e+01 0 0 1
204 2 2.1743259663651500e+01 3.4483336192211290e+01 1.6833255268114780e+01 1 1 1
58 1 2.1401776727774674e+01 3.5341122753710351e+01 1.7109268662340785e+01 1 0 1
59 2 2.1825438135727421e+01 3.5586209926884621e+01 1.7922715197279064e+01 1 0 1
326 2 2.0988628411537523e+01 3.6447476231913924e+01 1.5523423771141154e+01 0 -1 1
129 2 2.2054956634761997e+01 3.7820193735386468e+01 1.4310315975147050e+01 0 1 0
79 1 2.2983361315142115e+01 3.7644580400587628e+01 1.4088923779991356e+01 -1 1 0
257 2 2.3534893542787341e+01 3.7067290416612863e+01 1.5691431715389250e+01 0 -1 0
325 1 2.0656702986614270e+01 3.7094754649230623e+01 1.4886293597328065e+01 0 -1 1
256 1 2.3676042193057565e+01 3.7066367476636081e+01 1.6659212775221278e+01 0 -1 0
258 2 2.2978545367295748e+01 3.7624283769194122e+01 1.7044384630863455e+01 0 -1 0
147 2 2.4579426788652750e+01 3.4827835496978658e+01 1.7251896501773260e+01 0 0 0
25 1 2.4330816110065719e+01 3.4923887001806996e+01 1.8155975496650608e+01 0 -1 0
26 2 2.4002651319035195e+01 3.5842556611391210e+01 1.8253482595864000e+01 0 -1 0
604 1 2.6210415184493943e+01 3.7935969830529949e+01 1.7060561293570263e+01 0 0 0
260 2 2.7909747484729444e+01 3.5152536525496018e+01 1.4455006927960330e+01 0 -1 0
528 2 2.9356455904125294e+01 3.5859000642786782e+01 1.6520198820995954e+01 0 0 1
605 2 2.5330340883083547e+01 3.7466181996703497e+01 1.7071308119930997e+01 0 0 0
606 2 2.6866143206758348e+01 3.7318222779331975e+01 1.7333876242588573e+01 0 0 0
541 1 2.8661720350760142e+01 3.6412786809213010e+01 1.8161270915287201e+01 1 0 0
527 2 3.0004650275899404e+01 3.5105188982448503e+01 1.5349732869079142e+01 0 0 1
526 1 2.9639987483079061e+01 3.5958377277074945e+01 1.5566923198172073e+01 0 0 1
403 1 3.1123412653266776e+01 3.8321073861878794e+01 1.5689757405471127e+01 0 0 0
302 2 3.1667574813639202e+01 3.8660310397225523e+01 1.7390372848521444e+01 0 -1 0
405 2 3.1813270986567062e+01 3.7987212023390938e+01 1.5040641684970000e+01 0 0 0
404 2 3.0694349130906676e+01 3.7441807112291855e+01 1.5840208260543168e+01 0 0 0
400 1 3.3396720320364622e+01 3.6881076011901001e+01 1.4372190164901198e+01 0 0 0
401 2 3.3910458320949800e+01 3.6510146866849780e+01 1.5128462199889102e+01 0 0 0
301 1 3.1920936902457591e+01 3.8355585589522889e+01 1.8298189894900197e+01 0 -1 0
275 2 3.1364482156597283e+01 3.6222414805268230e+01 1.8543602931120468e+01 1 -1 0
380 2 3.8203002206413686e+01 3.5962330413843539e+01 1.7652660632658804e+01 -1 0 0
327 2 3.8425510476945270e+01 3.7466214362324344e+01 1.4994442808223759e+01 -1 -1 1
62 2 3.6989375893077238e+01 3.8745965261274421e+01 1.4395801550213694e+01 0 -1 0
188 2 3.4149603850381638e+01 3.5487988151215127e+01 1.7024122180132828e+01 0 0 -1
187 1 3.4759664641072220e+01 3.5494027614582357e+01 1.6292290832860953e+01 0 0 -1
63 2 3.6602093588673782e+01 3.8218866792297042e+01 1.5777687350503308e+01 0 -1 0
61 1 3.6952647357242000e+01 3.7929487881912522e+01 1.4921984528987922e+01 0 -1 0
395 2 3.5934413933414945e+01 3.4709653204367221e+01 1.5081680737701488e+01 0 1 1
189 2 3.5568193679899835e+01 3.5823688248168118e+01 1.6759582096997885e+01 0 0 -1
381 2 3.7832029641845835e+01 3.7327575997015899e+01 1.7992914397121996e+01 -1 0 0
379 1 3.7461463903603068e+01 3.6417551998266369e+01 1.8037307024174964e+01 -1 0 0
137 2 3.4865548791082716e+01 3.8356359522399273e+01 1.8431210234357565e+01 1 0 0
394 1 3.6393802428086772e+01 3.4222614318490656e+01 1.4321266037382070e+01 0 1 1
16 1 2.2608962150670351e+01 2.4367745934149205e+01 1.8734281515138385e+01 0 0 0
17 2 2.3427550224548394e+01 2.4506086116641832e+01 1.9216395683412042e+01 0 0 0
350 2 2.2210988779285124e+01 2.2380917644648093e+01 1.8716729135458785e+01 1 1 1
64 1 2.0140128013955767e+01 2.3096225509605688e+01 2.0533414967289918e+01 1 0 1
65 2 2.1049517005661770e+01 2.3017300676153845e+01 2.0908315219053737e+01 1 0 1
115 1 2.2644696096029733e+01 2.2712733177682292e+01 2.1579920460524001e+01 0 1 0
117 2 2.2566209101239526e+01 2.2463328104850085e+01 2.2554347437481216e+01 0 1 0
623 2 2.3744933902063082e+01 2.1361027944927873e+01 2.0771818899386506e+01 0 1 1
116 2 2.3026427220207839e+01 2.3659599097867510e+01 2.1621218246883750e+01 0 1 0
624 2 2.3385761328316690e+01 2.0701069415507149e+01 1.9529469401021913e+01 0 1 1
622 1 2.4070667708756570e+01 2.0626280948095140e+01 2.0233336121793474e+01 0 1 1
241 1 2.4774945765129292e+01 2.4749691725935151e+01 2.0375997668485610e+01 0 0 0
292 1 2.6397811883189267e+01 2.2509546599407717e+01 1.9225982887972130e+01 0 0 0
294 2 2.5648752212945201e+01 2.1865756507090868e+01 1.9235572642814951e+01 0 0 0
293 2 2.7199735617663617e+01 2.2119027130673381e+01 1.8799681092232110e+01 0 0 0
242 2 2.5412555474498390e+01 2.4098396013514865e+01 2.0128897226679882e+01 0 0 0
156 2 2.8149837799009958e+01 2.2557770179185326e+01 2.2015289189065204e+01 0 1 0
11 2 2.6772288630905770e+01 2.2327327493719014e+01 2.1273999558156927e+01 0 0 0
10 1 2.7178871496475850e+01 2.2257083930886029e+01 2.2108450585174158e+01 0 0 0
441 2 2.8981513312976116e+01 2.0476817820159742e+01 1.9411000601925881e+01 0 0 0
615 2 2.9291031749827791e+01 2.4038464789948527e+01 2.2043650172421195e+01 0 1 1
96 2 2.7764674188829225e+01 2.0613849242507097e+01 2.3142795315908909e+01 0 1 0
83 2 3.3368051686095853e+01 2.3976564909040899e+01 1.8905955930448510e+01 0 -1 -1
614 2 3.0484181773781913e+01 2.3064890901839874e+01 2.1884649174036543e+01 0 1 1
286 1 3.2164911862275083e+01 2.2588245688119589e+01 2.2258652570913295e+01 0 0 -1
287 2 3.2291998043602021e+01 2.2197474695074934e+01 2.1397440244435309e+01 0 0 -1
488 2 3.3753126802993663e+01 2.3505383087371520e+01 2.2805283056800537e+01 0 0 0
288 2 3.1832945932708803e+01 2.1892842747037669e+01 2.2883677229538019e+01 0 0 -1
613 1 2.9575170188314537e+01 2.3309545225762594e+01 2.1499337282635953e+01 0 1 1
554 2 3.8585905818859665e+01 2.3892647138473254e+01 1.8685318021041436e+01 0 0 1
66 2 3.8422874134457842e+01 2.3797685419427165e+01 2.1004617101596907e+01 0 0 1
487 1 3.4683437263310630e+01 2.3759806638124694e+01 2.2722916473979275e+01 0 0 0
423 2 3.5804754784072372e+01 2.3297044680176899e+01 1.9374560454346472e+01 0 0 0
408 2 3.8257960163688786e+01 2.1460177970765191e+01 2.1374264487364584e+01 0 1 0
422 2 3.4985669882081233e+01 2.3693133598981230e+01 2.0699649070046686e+01 0 0 0
421 1 3.5077515889078519e+01 2.3027981851314696e+01 1.9976590124574745e+01 0 0 0
618 2 3.5434347317838814e+01 2.1653676146180690e+01 2.0649138079636536e+01 0 1 0
128 2 3.7398049583553203e+01 2.4773714986431131e+01 2.2961443867633452e+01 0 0 -1
406 1 3.8240104797809892e+01 2.0477960736734275e+01 2.1465241745233435e+01 0 1 0
407 2 3.7176370511459567e+01 2.0333344210340876e+01 2.1548476166324019e+01 0 1 0
587 2 3.8652963223473265e+01 2.0105380320876787e+01 1.9681045517645149e+01 -1 1 1
616 1 3.5464423637794113e+01 2.0655720400601204e+01 2.0961535012304694e+01 0 1 0
368 2 3.4839307383104334e+01 2.0282782266534063e+01 2.2903943382948199e+01 -1 1 0
617 2 3.5092937229476348e+01 2.0098721990656482e+01 2.0270705694865754e+01 0 1 0
589 1 2.1209834431426831e+01 2.8810323446682698e+01 1.9055445939205967e+01 0 0 1
447 2 2.1770269083037203e+01 2.5365861508255144e+01 1.9969548728528626e+01 0 0 1
445 1 2.1192853750943115e+01 2.6094610087026290e+01 2.0394534973847250e+01 0 0 1
446 2 2.1093539076329247e+01 2.6758281722009759e+01 1.9752500115646168e+01 0 0 1
591 2 2.1866576409067314e+01 2.9175489124949156e+01 1.9717091972607886e+01 0 0 1
511 1 2.4469002576167028e+01 2.8718499013559935e+01 2.3213322457673907e+01 0 0 0
539 2 2.1441853098608384e+01 2.8791000221940685e+01 2.1868572573261645e+01 0 0 0
468 2 2.2952255697794936e+01 2.8996896538429624e+01 2.2051716695054019e+01 0 0 0
538 1 2.2238026193031885e+01 2.9257768412650613e+01 2.1468205218776802e+01 0 0 0
363 2 2.5270940909417092e+01 2.5379923611110527e+01 2.0948798071156524e+01 0 1 0
309 2 2.5503847687877151e+01 2.6513916661524764e+01 1.9013766056866199e+01 0 0 0
512 2 2.4804528117471680e+01 2.7878998896856267e+01 2.2872016578797389e+01 0 0 0
178 1 2.6023745246457832e+01 2.6908409517162237e+01 2.1699397290051323e+01 1 1 0
179 2 2.6266262832676134e+01 2.7846463333518631e+01 2.1415819446928882e+01 1 1 0
108 2 2.6638374161479739e+01 2.6658679776746506e+01 2.2349194353162304e+01 1 1 0
563 2 2.7250050576253724e+01 2.9170618368481421e+01 2.0116639155457833e+01 0 1 0
279 2 3.0115714938412786e+01 2.5541830098077956e+01 1.9680047578180083e+01 0 0 0
277 1 3.0841609253489693e+01 2.5890872776640222e+01 1.9216462600599957e+01 0 0 0
278 2 3.0994865285218395e+01 2.6866198587692530e+01 1.9349484076561868e+01 0 0 0
134 2 3.1857248551498692e+01 2.7596040372048421e+01 2.1642049622518410e+01 0 -1 -1
585 2 3.0665423250954106e+01 2.6043207896282013e+01 2.3245498279387267e+01 0 0 0
133 1 3.1845522008255948e+01 2.7468311532649629e+01 2.2564638844657374e+01 0 -1 -1
135 2 3.2719918635300019e+01 2.7309443485365801e+01 2.2941373167336522e+01 0 -1 -1
456 2 3.0750831994903812e+01 2.9257466409676233e+01 1.9861204366986954e+01 0 0 0
455 2 3.2240432270919683e+01 2.8787102227634101e+01 1.9634736771734627e+01 0 0 0
454 1 3.1387235904391158e+01 2.8477129722674469e+01 1.9917280316638085e+01 0 0 0
220 1 3.3777654705489958e+01 2.9211996792195350e+01 1.8605505378504056e+01 -1 0 -1
296 2 3.0061767315624635e+01 2.9354823902447166e+01 2.2341732881392275e+01 0 0 0
398 2 3.7443508539178254e+01 2.7652704660238388e+01 1.8611626379195588e+01 0 1 0
98 2 3.5852914707536733e+01 2.6872610211724133e+01 1.9248448384236799e+01 -1 0 0
151 1 3.7357057579726586e+01 2.5486102676973207e+01 2.1279900426545378e+01 -1 0 0
576 2 3.8350464088445044e+01 2.9350704351514388e+01 1.9227046031237048e+01 0 0 1
152 2 3.6589312837877664e+01 2.6076883438652821e+01 2.0957895507773113e+01 -1 0 0
201 2 3.8212497429740473e+01 2.5741956529158070e+01 2.0769247439088758e+01 0 0 0
3 2 3.5515821526087763e+01 2.7756898495423215e+01 2.0521132695942725e+01 -1 0 0
97 1 3.5379080591529807e+01 2.6843721479926380e+01 2.0193691752028801e+01 -1 0 0
249 2 3.4608315786030033e+01 2.5812762754242126e+01 2.2863077381801016e+01 0 -1 0
467 2 3.6777757934026468e+01 2.9382818426743341e+01 2.1161245420179604e+01 0 -1 1
466 1 3.6549572627216399e+01 2.9267897365197364e+01 2.2110868160628147e+01 0 -1 1
574 1 3.7369415096265911e+01 2.9285162444466671e+01 1.9248252427319123e+01 0 0 1
264 2 3.8067987602670883e+01 2.8554422176031125e+01 2.2738370991862311e+01 -1 0 0
139 1 2.1132912602895793e+01 3.2390408520851238e+01 1.8870131379516149e+01 0 0 -1
141 2 2.0774003111099091e+01 3.3245843879725406e+01 1.8942653645320227e+01 0 0 -1
20 2 2.2668666798955947e+01 3.2716199510592311e+01 2.0055565100767073e+01 -1 -1 0
19 1 2.3552419116375635e+01 3.3104516789227489e+01 2.0195723182039824e+01 -1 -1 0
21 2 2.3763610180961408e+01 3.3727255886464334e+01 1.9449939197200649e+01 -1 -1 0
306 2 2.4598336096595631e+01 3.1877325122249964e+01 1.9259517170812714e+01 0 0 0
38 2 2.4013851578899711e+01 3.1636985626118637e+01 2.1611744107061199e+01 0 0 0
37 1 2.4593095096541550e+01 3.1414939989364179e+01 2.2426972548758904e+01 0 0 0
310 1 2.9309686648846462e+01 3.0053138042152931e+01 1.8748220941455724e+01 -1 1 1
562 1 2.6543674980875018e+01 2.9551099584740999e+01 2.0617010716809858e+01 0 1 0
492 2 2.6044582510215744e+01 3.0109758382072769e+01 1.9961351367998894e+01 0 1 0
304 1 2.4843064673411408e+01 3.0926550259987771e+01 1.8990892466200691e+01 0 0 0
639 2 2.6685235706179075e+01 3.3673487504666454e+01 1.9878507293026509e+01 1 0 1
39 2 2.4818867007835948e+01 3.0496183388670818e+01 2.2397411407218037e+01 0 0 0
53 2 2.5922783111029354e+01 3.2286848447247628e+01 2.1669830581053787e+01 1 0 0
143 2 2.7292540642767271e+01 3.3531808265803846e+01 2.2794099313663310e+01 0 0 -1
52 1 2.6792179621381052e+01 3.2607465831138100e+01 2.1286668669200754e+01 1 0 0
54 2 2.7232882710361505e+01 3.1707197179948391e+01 2.1245115879266923e+01 1 0 0
386 2 2.6920884072312457e+01 2.9565474063868010e+01 2.3082736441640698e+01 0 0 0
345 2 2.9021821936980267e+01 3.0328273548612593e+01 2.2872250482840411e+01 1 0 0
643 1 3.0904520690427997e+01 3.3246524942601248e+01 1.8588154669036243e+01 1 0 1
645 2 3.0899388315668581e+01 3.2860475633256883e+01 1.9493536158047462e+01 1 0 1
238 1 3.0880125758070232e+01 3.2556538131044690e+01 2.0973179237435573e+01 -1 -1 1
239 2 3.0450832470703958e+01 3.1696486006055416e+01 2.1140591729675545e+01 -1 -1 1
240 2 3.1717153642362582e+01 3.2487412769204077e+01 2.1490783491404819e+01 -1 -1 1
34 1 3.3241859035722477e+01 3.2510247231767408e+01 2.2106180489885336e+01 0 -1 0
180 2 3.3814105243101793e+01 3.1701569714529903e+01 2.2369106098068599e+01 0 0 0
35 2 3.3329056710750784e+01 3.3021700802695356e+01 2.2934907759750185e+01 0 -1 0
295 1 2.9725613071578245e+01 3.0250368292952007e+01 2.2197288789740565e+01 0 0 0
222 2 3.4625243286051727e+01 2.9523601773777422e+01 1.8942640874253339e+01 -1 0 -1
575 2 3.7047412158733650e+01 3.0161117285419397e+01 1.8865624676607862e+01 0 0 1
498 2 3.5827633384408948e+01 3.2044831579831218e+01 1.8713105466716677e+01 0 0 1
612 2 3.6221774023384540e+01 3.0186510775469799e+01 2.2285020787643575e+01 0 0 1
300 2 3.6649796722500142e+01 3.3413476112542838e+01 2.0159381652571586e+01 -1 -1 0
370 1 3.5750614419689150e+01 3.3001606250425652e+01 2.0145899215120117e+01 -1 -1 0
507 2 3.5612103428000765e+01 3.2207663910138876e+01 2.1802889107301564e+01 0 -1 0
601 1 3.5742647662721666e+01 3.1612608134257197e+01 2.2625854593678188e+01 0 -1 0
602 2 3.6344122051834987e+01 3.2120720829095887e+01 2.3190911958364595e+01 0 -1 0
371 2 3.5060702286077515e+01 3.3609958440969535e+01 1.9758470055162913e+01 -1 -1 0
387 2 2.2471274929195086e+01 3.6525909349818932e+01 2.0148555419708391e+01 0 0 0
265 1 2.2081777524486974e+01 3.6727088627064006e+01 1.9305232446390676e+01 0 -1 0
266 2 2.1567600943152680e+01 3.7565371881358523e+01 1.9366393289005892e+01 0 -1 0
586 1 2.0120938991064751e+01 3.8640061474373397e+01 1.8724240562575851e+01 0 0 1
202 1 2.3376587104846365e+01 3.5732628303517401e+01 2.1635953068056942e+01 1 0 0
132 2 2.4228313781679311e+01 3.6103890831189346e+01 2.1335117402012841e+01 1 0 0
8 2 2.0682014434180498e+01 3.8799562343308850e+01 2.2594304124600697e+01 0 0 0
203 2 2.3410858365580921e+01 3.4791775898326108e+01 2.1340709720092299e+01 1 0 0
24 2 2.0618931244989895e+01 3.5439712048407415e+01 2.3177307316449848e+01 0 -1 0
543 2 2.8889072025367796e+01 3.7259580114512744e+01 1.8613741233683538e+01 1 0 0
464 2 2.9183350758307597e+01 3.8110158921256378e+01 2.0439120873174602e+01 0 -1 0
637 1 2.6866284882157782e+01 3.4359392898447616e+01 1.9120730146026656e+01 1 0 1
638 2 2.5992461908131105e+01 3.4586744167170046e+01 1.8760077465490998e+01 1 0 1
172 1 2.8424774878744195e+01 3.7024104614650774e+01 2.1530344929871355e+01 0 0 -1
174 2 2.8361644981125352e+01 3.7484377712934680e+01 2.2388316906492964e+01 0 0 -1
328 1 2.5640018303262160e+01 3.6982704778465617e+01 2.0499533506827778e+01 0 0 0
330 2 2.5196201040674033e+01 3.7893379528967898e+01 2.0464483673974698e+01 0 0 0
542 2 2.7992699698317587e+01 3.6120288949492760e+01 1.8793930426943454e+01 1 0 0
173 2 2.9034670799627097e+01 3.6291848849876530e+01 2.1642560127546034e+01 0 0 -1
329 2 2.6438694586349531e+01 3.7061538598240915e+01 2.1042791726653903e+01 0 0 0
138 2 3.3368352719999770e+01 3.8067964059851008e+01 1.8730952405948557e+01 1 0 0
86 2 3.3317381334129102e+01 3.5083784825959668e+01 1.9108275486967639e+01 0 0 0
463 1 2.9708585854830702e+01 3.8732011073157040e+01 1.9837905487277155e+01 0 -1 0
303 2 3.1181736039395297e+01 3.8710782874594742e+01 1.8813832521506452e+01 0 -1 0
375 2 3.0316133903488563e+01 3.4332679036479206e+01 2.1715168950408483e+01 -1 1 1
373 1 3.0416858932106670e+01 3.5292317515763457e+01 2.1824036526916412e+01 -1 1 1
420 2 3.1179762846442081e+01 3.4773085915150943e+01 1.8961235439733329e+01 1 0 0
374 2 3.1055416926425828e+01 3.5538303802072882e+01 2.1107515183926846e+01 -1 1 1
274 1 3.1710438367291559e+01 3.5573472528211859e+01 1.9172418064531900e+01 1 -1 0
194 2 3.4111080862096330e+01 3.6535037306359030e+01 2.1553742000702250e+01 0 0 0
193 1 3.3779891078177997e+01 3.6079102884803518e+01 2.2359456793405059e+01 0 0 0
87 2 3.4646179256300812e+01 3.5837041602871047e+01 1.8976688152921209e+01 0 0 0
85 1 3.4310271581397345e+01 3.4980408231900498e+01 1.8969124710490824e+01 0 0 0
136 1 3.4302169775935468e+01 3.7870636072694296e+01 1.9105515571236673e+01 1 0 0
388 1 3.8161224699681114e+01 3.4536666799127715e+01 1.9980006937777514e+01 -1 0 0
390 2 3.7902305052252345e+01 3.5281927876755532e+01 1.9433152596586719e+01 -1 0 0
389 2 3.8338837649537474e+01 3.4956711139601154e+01 2.0841290178667162e+01 -1 0 0
99 2 3.4507831500898718e+01 3.6089551803788886e+01 2.3038790131273469e+01 0 0 0
22 1 3.8467760514365679e+01 3.5112016496544527e+01 2.2704343780268413e+01 -1 -1 0
269 2 2.2629745297472521e+01 2.1284826710281198e+01 2.4535364756355200e+01 1 1 0
284 2 2.2537938373263980e+01 2.2327924490913137e+01 2.7808822490042850e+01 0 0 0
268 1 2.2996227653961281e+01 2.2141552577910797e+01 2.4334300551403775e+01 1 1 0
270 2 2.2359004033816493e+01 2.2755626898959015e+01 2.4657574090854908e+01 1 1 0
214 1 2.1080619505080595e+01 2.3689883390802468e+01 2.5904307738361030e+01 1 1 -1
216 2 2.1097822995885352e+01 2.4639978421790005e+01 2.6076557915725768e+01 1 1 -1
215 2 2.0155268861753221e+01 2.3448332143452358e+01 2.5869597213986133e+01 1 1 -1
393 2 2.5072246311326396e+01 2.1482750837831226e+01 2.5304269430634683e+01 0 1 -1
416 2 2.5658756716469519e+01 2.1010009733236206e+01 2.6602603033243259e+01 0 1 -1
415 1 2.5906631215141420e+01 2.1404108605620607e+01 2.5767001637359211e+01 0 1 -1
377 2 2.7230160089697389e+01 2.0466858158589513e+01 2.7780906349963338e+01 0 1 0
226 1 2.9107986946926662e+01 2.0527079155781799e+01 2.7345284511636390e+01 0 0 0
525 2 2.6825254373769795e+01 2.2597350163400364e+01 2.5370140851159746e+01 0 0 0
524 2 2.7613182447694012e+01 2.3526780084401931e+01 2.4399046477588026e+01 0 0 0
523 1 2.7455126559942997e+01 2.3265377173986536e+01 2.5322604274892100e+01 0 0 0
382 1 3.0456718115553628e+01 2.2668181153220004e+01 2.5974069135743598e+01 0 1 0
372 2 2.9619729285809804e+01 2.1323533851156640e+01 2.7019401068376421e+01 0 1 0
384 2 2.9569922922864059e+01 2.2990735283487375e+01 2.5703172447548837e+01 0 1 0
383 2 3.0876587642816759e+01 2.2057272378235510e+01 2.5333327923252888e+01 0 1 0
334 1 3.0984652969419272e+01 2.0947077951255256e+01 2.4040859015395956e+01 0 0 -1
336 2 3.0065266196832997e+01 2.0748318201381291e+01 2.3912429899283424e+01 0 0 -1
150 2 3.3849065936051311e+01 2.3572570026127345e+01 2.5511287848016735e+01 0 0 0
159 2 3.1226845863996282e+01 2.3742494883111966e+01 2.7117090692591638e+01 0 0 -1
465 2 3.4940613362194370e+01 2.3735188552813934e+01 2.3630792495968944e+01 0 0 0
105 2 3.8730305709488732e+01 2.4622114063345421e+01 2.3698042919495069e+01 0 0 -1
127 1 3.7815834448452691e+01 2.4267092915615116e+01 2.3696847009187863e+01 0 0 -1
149 2 3.4233890942593803e+01 2.2649409084973691e+01 2.6608793814675909e+01 0 0 0
417 2 3.5558506399276794e+01 2.0895574571964634e+01 2.4108198932251142e+01 0 1 0
148 1 3.4659863688920019e+01 2.3145227328436103e+01 2.5905439406674340e+01 0 0 0
647 2 3.6035027590649428e+01 2.2570918058377412e+01 2.5098923372599000e+01 1 0 0
646 1 3.6819175127909304e+01 2.2070881900787715e+01 2.4737280522639658e+01 1 0 0
648 2 3.7365198333621713e+01 2.2647716315206502e+01 2.4122173625801700e+01 1 0 0
155 2 3.4999279190902058e+01 2.4647368340500872e+01 2.6987253148467836e+01 -1 0 0
317 2 3.7734211815928148e+01 2.0667216123465565e+01 2.5268682954729716e+01 0 0 0
212 2 3.6927309774427599e+01 2.0668475395587937e+01 2.7551902031892975e+01 0 1 0
560 2 2.0949432262572561e+01 2.6413720543549356e+01 2.3338357260364802e+01 1 1 0
559 1 2.1561987340857705e+01 2.5712313827352208e+01 2.3550249750945209e+01 1 1 0
200 2 2.2776629490487561e+01 2.5930286326508924e+01 2.7458727967677465e+01 1 1 -1
199 1 2.3455778413816429e+01 2.5785451416305143e+01 2.6809905570617822e+01 1 1 -1