LAMMPS data file via write_data, version 2 Jun 2020, timestep = 2712000

648 atoms
2 atom types

1.9975892362992170e+01 3.8933107636997974e+01 xlo xhi
1.9975892362992170e+01 3.8933107636997974e+01 ylo yhi
1.3779892362990109e+01 3.2737107636998054e+01 zlo zhi

Masses

1 15.9994
2 1.00794

Atoms # atomic

204 2 2.4172234678041573e+01 2.3512448281359802e+01 1.5660325320989440e+01 0 0 0
58 1 2.3732194908981487e+01 2.4297586852366258e+01 1.5192070896567049e+01 0 -1 0
52 1 2.3091573683064581e+01 2.0252640294248668e+01 1.8243605924455679e+01 2 1 0
576 2 2.0601914527157152e+01 2.1026763398194113e+01 1.4411610700124864e+01 0 0 1
574 1 2.0014343620268566e+01 2.0256036369992216e+01 1.4568979319693277e+01 0 0 1
59 2 2.3122679590068962e+01 2.4590141116408780e+01 1.5906482475045596e+01 0 -1 0
125 2 2.2545542777082797e+01 2.2990460295695193e+01 1.4223699271233837e+01 1 1 0
321 2 2.4243004178223750e+01 2.1272366354074109e+01 1.7246427331759943e+01 0 1 -1
343 1 2.4649198903700839e+01 2.1956763595934994e+01 1.6694007183414360e+01 0 1 -1
128 2 2.1171801467048649e+01 2.4687158845588925e+01 1.7283193257103953e+01 1 0 1
484 1 2.0027521191752115e+01 2.3640027887570731e+01 1.8123137173538900e+01 1 1 -1
124 1 2.1835714987643389e+01 2.2370562954797279e+01 1.3960476659847485e+01 1 1 0
344 2 2.5159559102182708e+01 2.2400407387719238e+01 1.7393099706780966e+01 0 1 -1
565 1 2.6354680937310796e+01 2.0543495951075318e+01 1.5063277471209398e+01 1 1 0
566 2 2.5598378234612657e+01 2.1017460699428486e+01 1.5532669889056438e+01 1 1 0
256 1 2.6164175055044637e+01 2.3753022238336982e+01 1.8279940873179935e+01 0 1 1
567 2 2.6926271906486452e+01 2.1080843585077403e+01 1.4418876300518953e+01 1 1 0
169 1 2.9180893116286779e+01 2.0496015057828721e+01 1.8334961692249649e+01 -1 0 0
248 2 2.8813130747006468e+01 2.3229712223374321e+01 1.4380812456525085e+01 -1 -1 -1
247 1 2.9029154043603789e+01 2.3980661069134815e+01 1.5062402318338405e+01 -1 -1 -1
225 2 2.9508670359387160e+01 2.3351393026006811e+01 1.5666977386263733e+01 -1 -1 -1
600 2 3.1974907056536729e+01 2.1140370755360372e+01 1.5697256134325768e+01 1 1 0
598 1 3.2632948781113562e+01 2.0643440933798828e+01 1.5155717493091009e+01 1 1 0
513 2 3.1337954123372640e+01 2.2534717020633543e+01 1.7287779356945432e+01 0 0 0
536 2 3.0335164606116770e+01 2.1349051137305310e+01 1.7374870303676499e+01 0 0 0
535 1 3.0702171410574309e+01 2.2043129425333511e+01 1.6745698994846858e+01 0 0 0
373 1 3.3044330968011934e+01 2.3161949120600159e+01 1.7854337244327095e+01 -1 2 1
159 2 3.3545732705276151e+01 2.1811887273447617e+01 1.4230505950954710e+01 -1 0 1
480 2 3.4097914839265059e+01 2.4320676513991806e+01 1.7101922795899270e+01 0 1 1
599 2 3.3121072486088224e+01 2.0175153002709067e+01 1.5790990297956411e+01 1 1 0
374 2 3.3521217884772270e+01 2.2615250947876852e+01 1.8468232936325741e+01 -1 2 1
375 2 3.2823849991951306e+01 2.3974992658801266e+01 1.8328503899818504e+01 -1 2 1
486 2 3.8399695457436565e+01 2.3107709442523308e+01 1.7557424562578685e+01 0 1 -1
575 2 3.8406050889412100e+01 2.0661713538099157e+01 1.5239314640305510e+01 -1 0 1
144 2 3.7038927506137142e+01 2.1188844949507718e+01 1.6776646252166895e+01 0 0 1
142 1 3.7569551054625990e+01 2.1703378808865715e+01 1.6136222634506225e+01 0 0 1
143 2 3.7007697473450975e+01 2.2167185001818044e+01 1.5424526722350848e+01 0 0 1
403 1 3.6041484529357241e+01 2.3472376729119517e+01 1.4740231455926502e+01 -1 1 1
405 2 3.5184004660321790e+01 2.3135089160127215e+01 1.4269459207532517e+01 -1 1 1
637 1 3.6191092873080414e+01 2.0321042793159762e+01 1.8041163294353815e+01 -1 1 1
404 2 3.5659258281917388e+01 2.4212936267349860e+01 1.5381631289585966e+01 -1 1 1
47 2 3.7348728394059101e+01 2.4574616050934146e+01 1.3997643682614557e+01 -1 -1 0
127 1 2.1774537584191481e+01 2.5345387649881602e+01 1.6838051535741020e+01 1 0 1
105 2 2.2237744583858724e+01 2.5922644264326468e+01 1.7615499097021690e+01 1 0 1
644 2 2.1150050676630599e+01 2.6337918413484616e+01 1.4979324299206050e+01 1 0 0
645 2 2.0878524434369574e+01 2.7563054227523772e+01 1.3898259493263568e+01 1 0 0
643 1 2.0466188712459942e+01 2.6841763278231355e+01 1.4474140958140749e+01 1 0 0
155 2 2.3947366085161228e+01 2.8249435693855499e+01 1.7597966195579861e+01 0 1 -1
84 2 2.3778683851052893e+01 2.9399034115788247e+01 1.6442799706415038e+01 0 1 -1
274 1 2.2887310327345261e+01 2.7103413304179156e+01 1.8499456308128437e+01 2 0 1
154 1 2.4399444055421633e+01 2.8931996822898387e+01 1.7074664560253861e+01 0 1 -1
122 2 2.4958490742844027e+01 2.5407771602802640e+01 1.4288531160538515e+01 1 1 -1
305 2 2.6850854614383785e+01 2.4909150318019982e+01 1.7180973077717258e+01 -1 0 0
304 1 2.7338958004173037e+01 2.5526011887744215e+01 1.6567020815662364e+01 -1 0 0
104 2 2.6719066992879213e+01 2.6857087326902281e+01 1.5883701687579030e+01 0 1 -1
103 1 2.6353943173671659e+01 2.7589455677341597e+01 1.5364327508938993e+01 0 1 -1
81 2 2.5848671802109685e+01 2.7966134424017795e+01 1.6110642647824765e+01 0 1 -1
27 2 2.5891361923568137e+01 2.6572916733280465e+01 1.4163392854880433e+01 1 1 -1
306 2 2.7913898888936838e+01 2.4971776374946636e+01 1.6007549368343746e+01 -1 0 0
521 2 2.9250908867021487e+01 2.7076288929897856e+01 1.8166532081216076e+01 -1 2 1
263 2 2.7714462192068858e+01 2.8838895719067430e+01 1.4341119889148764e+01 -1 0 0
63 2 3.0266760261223325e+01 2.4919217794288045e+01 1.4163901854548817e+01 1 0 -1
522 2 2.9526510290512924e+01 2.6233515550667121e+01 1.6839428685629795e+01 -1 2 1
520 1 2.9934831861099781e+01 2.6655468978174483e+01 1.7623195520021188e+01 -1 2 1
331 1 3.2836117016207680e+01 2.6738668266099651e+01 1.4944085261734022e+01 1 0 1
45 2 3.1997846101771149e+01 2.8192570699343008e+01 1.5942132862522051e+01 -1 0 -3
479 2 3.3826081484628979e+01 2.5488368929562490e+01 1.5937992323421344e+01 0 1 1
333 2 3.3466523396142414e+01 2.7197005611294603e+01 1.4294175641164109e+01 1 0 1
332 2 3.2130204958403873e+01 2.6192849499835070e+01 1.4402411986083475e+01 1 0 1
43 1 3.1379756156858647e+01 2.8615233178305694e+01 1.6514597709130893e+01 -1 0 -3
44 2 3.0998958113038530e+01 2.7944425875052758e+01 1.7106938016627563e+01 -1 0 -3
330 2 3.1402175330740761e+01 2.5847030029775045e+01 1.8485720771769824e+01 0 0 0
478 1 3.4484610130719268e+01 2.5024548418242183e+01 1.6476828248285027e+01 0 1 1
360 2 3.8213739158120319e+01 2.7738657647976140e+01 1.5732035190824307e+01 -1 1 -1
359 2 3.7206910311433816e+01 2.7561323359231118e+01 1.6924267670541116e+01 -1 1 -1
358 1 3.7678522914174096e+01 2.8226091819848627e+01 1.6401179342961402e+01 -1 1 -1
578 2 3.5474171082316715e+01 2.6113944021713181e+01 1.7349190230968631e+01 -1 0 1
577 1 3.6055990692760261e+01 2.6722182721963939e+01 1.7879730301472321e+01 -1 0 1
5 2 3.8357956732041323e+01 2.9323399900649804e+01 1.7721156794645278e+01 -1 0 -1
48 2 3.8224755703612068e+01 2.5916897754993336e+01 1.3959544878043708e+01 -1 -1 0
462 2 3.5183665106789405e+01 2.8439380608547609e+01 1.3789894999626881e+01 -1 -1 1
353 2 3.6916039194923769e+01 2.9349574231888965e+01 1.5543945939712618e+01 0 0 0
555 2 3.5397150667886706e+01 2.7461191268642441e+01 1.8134056094925601e+01 0 0 1
87 2 2.2357603903165991e+01 2.9930404857863888e+01 1.4058358625565257e+01 -1 -2 1
85 1 2.2974722272660145e+01 3.0362675233464536e+01 1.4680906407093969e+01 -1 -2 1
86 2 2.2441855659233852e+01 3.0761408949795474e+01 1.5296759527171199e+01 -1 -2 1
60 2 2.0508949442294469e+01 3.2434027845200788e+01 1.5343418510926153e+01 1 0 0
287 2 2.1144698845316348e+01 3.1017912031453193e+01 1.6868901650873433e+01 1 -1 0
286 1 2.1551025371501566e+01 3.1641597741529388e+01 1.6237381188162985e+01 1 -1 0
288 2 2.1963407707056177e+01 3.2329137058801152e+01 1.6807739625081176e+01 1 -1 0
4 1 2.0048023515382038e+01 2.9867177667619742e+01 1.8175358693952528e+01 0 0 -1
255 2 2.4165306293178368e+01 3.1261681760190505e+01 1.3808794195631975e+01 -1 0 0
628 1 2.3174442023694127e+01 3.2888990021221652e+01 1.8115000166113621e+01 1 0 1
630 2 2.3732308945291106e+01 3.3455899309995054e+01 1.7606255905932272e+01 1 0 1
293 2 2.5668745022103462e+01 2.9809943092122428e+01 1.7965497565416797e+01 -1 -1 0
443 2 2.7638839197469355e+01 3.2079486700766800e+01 1.6593959556612337e+01 0 0 1
442 1 2.8264266812823408e+01 3.1565677056819588e+01 1.7175127154093779e+01 0 0 1
199 1 2.6734091187588135e+01 3.3135736076099462e+01 1.5304432412058132e+01 1 0 1
588 2 2.7588797193660120e+01 3.1011850478075495e+01 1.7744894380746562e+01 0 1 1
177 2 2.6278930153530172e+01 3.2572074749093147e+01 1.4697278033646626e+01 1 0 1
200 2 2.6078944304548205e+01 3.3804480591509957e+01 1.5623034776974356e+01 1 0 1
491 2 2.9435043089378397e+01 3.0939994124279565e+01 1.6002489805514237e+01 1 -2 0
15 2 2.9424963009121633e+01 3.2806755623117027e+01 1.7934854667730221e+01 0 -1 2
438 2 2.7878691069451108e+01 3.4101031506003487e+01 1.4434413391421394e+01 0 -1 0
264 2 2.8994508127686693e+01 2.9771614705336233e+01 1.4334875164126258e+01 -1 0 0
490 1 3.0055463290124653e+01 3.0400795409471648e+01 1.5429883553349423e+01 1 -2 0
303 2 3.2785090498363544e+01 2.9583162184317501e+01 1.7195038031259404e+01 -1 1 0
636 2 3.0506377295236501e+01 2.9673658297671487e+01 1.5891041195883458e+01 1 -1 0
307 1 3.2889660968206442e+01 3.3626074312546422e+01 1.4684015010739014e+01 0 -1 0
308 2 3.2279313176789465e+01 3.2926277495101090e+01 1.4385090247114597e+01 0 -1 0
302 2 3.3663440254909993e+01 3.0867853082582769e+01 1.7052608264108326e+01 -1 1 0
301 1 3.3101812675431411e+01 3.0337560206571396e+01 1.7706674052425772e+01 -1 1 0
309 2 3.3476630220678459e+01 3.4004659235997202e+01 1.3969431227233231e+01 0 -1 0
13 1 2.9909183101659274e+01 3.3608092692375081e+01 1.8245634688217795e+01 0 -1 2
14 2 3.0323782607673728e+01 3.4081724946729693e+01 1.7515454087952474e+01 0 -1 2
335 2 3.0955254470678724e+01 3.1115937434624023e+01 1.4161161738593778e+01 0 1 0
130 1 3.8885402754108824e+01 3.2942158431072784e+01 1.4729245863947641e+01 0 0 0
240 2 3.4220826853421251e+01 3.2445572913535500e+01 1.5418716951681105e+01 -1 0 1
238 1 3.4624927339923033e+01 3.1754580063604269e+01 1.6006095298837231e+01 -1 0 1
131 2 3.8320780658441549e+01 3.2315350644058896e+01 1.4173862415676082e+01 0 0 0
352 1 3.6375595200127620e+01 2.9701798481718278e+01 1.4774077161681854e+01 0 0 0
239 2 3.5025750796702070e+01 3.2314942276808424e+01 1.6687662292905692e+01 -1 0 1
354 2 3.5845726831891696e+01 3.0376858278493305e+01 1.5237027853564015e+01 0 0 0
34 1 3.6359735295506475e+01 3.2841713203215704e+01 1.7900328624865107e+01 -1 -1 1
35 2 3.6832738202145279e+01 3.3449582078781582e+01 1.7215007476124793e+01 -1 -1 1
558 2 3.7929225902705880e+01 3.3952352526217531e+01 1.5642740830881461e+01 -1 -1 0
365 2 2.0765856901579983e+01 3.4211271616553503e+01 1.4045965386909437e+01 0 -1 1
626 2 2.2353850791726810e+01 3.8331540369010398e+01 1.6810853874689407e+01 1 -1 1
531 2 2.1438716690156557e+01 3.8324481789709893e+01 1.5624274441698867e+01 1 -1 1
625 1 2.1987787738048322e+01 3.7768091995258629e+01 1.6131403190876515e+01 1 -1 1
26 2 2.0982438671796086e+01 3.6798319988405439e+01 1.7310349426271898e+01 -1 1 -1
146 2 2.2884532055576841e+01 3.6756992853382712e+01 1.5279394592055320e+01 -1 -1 2
145 1 2.3284253804290074e+01 3.6015044498049242e+01 1.4794939488761855e+01 -1 -1 2
222 2 2.4036208485947650e+01 3.5135523737644448e+01 1.5836773799431997e+01 -2 0 1
123 2 2.4073472146845493e+01 3.6452885046239018e+01 1.4351775224609444e+01 0 -1 2
25 1 2.0424087328781170e+01 3.6179221374854535e+01 1.7802417031402978e+01 -1 1 -1
220 1 2.4658898669404010e+01 3.4569390759767018e+01 1.6368194962911524e+01 -2 0 1
366 2 2.1988591919471212e+01 3.5193504140300753e+01 1.4040167565289433e+01 0 -1 1
147 2 2.0012735297968934e+01 3.5579474564246212e+01 1.7230858980419523e+01 -1 2 -1
75 2 2.8592688421599995e+01 3.8921993203960419e+01 1.7765181673825129e+01 -1 -1 0
488 2 2.7245667430252574e+01 3.8527054341413304e+01 1.6009136948877899e+01 0 -1 0
487 1 2.7787592249614736e+01 3.7939804166242695e+01 1.6520137767261211e+01 0 -1 0
221 2 2.5152542613048613e+01 3.5223776221494688e+01 1.6917580945235279e+01 -2 0 1
324 2 2.6817634474384054e+01 3.6671955300157251e+01 1.7269628010673717e+01 -1 1 1
465 2 2.8609563733088375e+01 3.7708189632589864e+01 1.6015450771253423e+01 0 -1 0
394 1 2.6100653412647016e+01 3.6281344863523259e+01 1.7846653534912026e+01 -1 1 1
297 2 2.9246669030698939e+01 3.6471955311540967e+01 1.4381831245907243e+01 1 0 1
395 2 2.5697626800221570e+01 3.7095223753777070e+01 1.8484818752239622e+01 -1 1 1
24 2 2.5423597462242121e+01 3.8318199597520419e+01 1.4315623991686651e+01 -1 -1 0
436 1 2.8483802760387107e+01 3.4798223385301561e+01 1.4003220397488846e+01 0 -1 0
561 2 3.1867143466712527e+01 3.4663840569209079e+01 1.5774891643110584e+01 1 0 0
319 1 2.9833087775498036e+01 3.7066712952540279e+01 1.4935491974990756e+01 1 0 1
511 1 3.1325864128818559e+01 3.5125602736880808e+01 1.6511250453712513e+01 0 0 0
512 2 3.0851491446013412e+01 3.5884657070446522e+01 1.6101845571123107e+01 0 0 0
95 2 3.2319628144137013e+01 3.5703616099864469e+01 1.7667833625888218e+01 -1 1 0
320 2 3.0319272693045995e+01 3.7565987263088424e+01 1.4263075395104650e+01 1 0 1
94 1 3.2980502803883809e+01 3.5879463358475164e+01 1.8451905723884821e+01 -1 1 0
186 2 3.3761074962349667e+01 3.7432007945642873e+01 1.7423922734061634e+01 -1 -1 1
639 2 3.5567745042273408e+01 3.8617102981571975e+01 1.7598236947230610e+01 -1 0 1
184 1 3.4249182006810592e+01 3.7827595485136953e+01 1.6697138223230823e+01 -1 -1 1
185 2 3.4759003096785875e+01 3.7110222549088697e+01 1.6255726726674723e+01 -1 -1 1
556 1 3.7668138223927457e+01 3.4704698922521359e+01 1.6263115167350211e+01 -1 -1 0
557 2 3.7064269657065523e+01 3.5319495464158571e+01 1.5841101216607324e+01 -1 -1 0
346 1 3.5748435167964026e+01 3.6289508826850252e+01 1.5026690429692852e+01 1 1 0
347 2 3.6098227820855016e+01 3.6963804537413026e+01 1.4412102194638358e+01 1 1 0
276 2 3.5146730167999891e+01 3.5772514339826714e+01 1.4399802448481378e+01 1 1 0
638 2 3.6965977503997919e+01 3.8815774272557022e+01 1.8441993964065890e+01 -1 0 1
54 2 2.2471409885401698e+01 2.0855750385378556e+01 1.8762268922006193e+01 2 1 0
272 2 2.1149432391884844e+01 2.2844032743198454e+01 1.9069951665995269e+01 0 0 0
249 2 2.1462215749883796e+01 2.1777573156184260e+01 2.0261426764450938e+01 0 0 0
271 1 2.1913624146590902e+01 2.2335768092692906e+01 1.9550529614001700e+01 0 0 0
614 2 2.2652094454931607e+01 2.3485402518145811e+01 2.0445169011926122e+01 2 0 1
613 1 2.3096426201488271e+01 2.4094384487685510e+01 2.1172901951716433e+01 2 0 1
615 2 2.3767643674181652e+01 2.3571613260380779e+01 2.1578809735907239e+01 2 0 1
16 1 2.0602837046617196e+01 2.0857776385299275e+01 2.1313458836965363e+01 0 -1 1
18 2 2.0036552950454499e+01 2.1480371203154064e+01 2.1834050208806715e+01 0 -1 1
17 2 2.0186235165145327e+01 2.0134804474785231e+01 2.0777198122194257e+01 0 -1 1
258 2 2.6841794918643835e+01 2.3293406766914877e+01 1.8818981206149456e+01 0 1 1
467 2 2.8550148130936414e+01 2.2106259395709174e+01 1.9168686299154885e+01 -1 -1 2
466 1 2.8075349172728998e+01 2.2722416725292849e+01 1.9703472907940949e+01 -1 -1 2
612 2 2.7485489423598739e+01 2.2276023737227284e+01 2.0376917119881732e+01 -1 0 2
68 2 2.6012987860868961e+01 2.1439456496351749e+01 2.1861462645903821e+01 -1 0 0
67 1 2.6681668420844229e+01 2.1033510872941381e+01 2.1216330195030974e+01 -1 0 0
69 2 2.7217542221492220e+01 2.0505374197759885e+01 2.1802875019361910e+01 -1 0 0
322 1 2.4787884727104576e+01 2.2176341418191949e+01 2.3016307739466676e+01 0 1 1
201 2 2.8978292676846181e+01 2.4624248760846299e+01 2.2729885457725192e+01 2 2 0
257 2 2.5744869202030433e+01 2.4488999418054458e+01 1.8795614039957201e+01 0 1 1
579 2 2.9456735692040336e+01 2.3610295187095243e+01 2.0268371882862564e+01 0 1 0
457 1 3.0279316178070925e+01 2.3901357271268498e+01 2.0683809963818042e+01 0 0 0
246 2 3.1066449427103262e+01 2.2796539319867339e+01 2.1619404905179248e+01 -1 0 -1
245 2 3.2061643897766551e+01 2.1665690123387147e+01 2.2084077929193064e+01 -1 0 -1
244 1 3.1436373082038912e+01 2.2329238220952085e+01 2.2401927556257284e+01 -1 0 -1
473 2 3.4090516226931292e+01 2.0996233926026932e+01 2.0425335018375826e+01 -1 0 -1
458 2 3.0687181542243941e+01 2.4476891066925255e+01 1.9971209490872280e+01 0 0 0
485 2 3.8391924190607725e+01 2.4241509318088184e+01 1.8632888511236349e+01 0 1 -1
472 1 3.4571483550950532e+01 2.1775608626498244e+01 1.9955217944306035e+01 -1 0 -1
474 2 3.5161199611595919e+01 2.1216474080582618e+01 1.9462494649577138e+01 -1 0 -1
99 2 3.5489349828232797e+01 2.2866300863328249e+01 2.1010272201179063e+01 1 0 0
193 1 3.5987724652433613e+01 2.3667733250778404e+01 2.1326091916689464e+01 1 0 0
194 2 3.6604584454999880e+01 2.3156747123691503e+01 2.1926859929586179e+01 1 0 0
571 1 3.8376507418615660e+01 2.2375859603394147e+01 2.2881761412763503e+01 1 0 1
101 2 3.6943831708706355e+01 2.4667475606844889e+01 2.0200547096556683e+01 -3 -1 -1
489 2 3.4989601427865708e+01 2.4591043884927970e+01 2.2085345761902435e+01 1 -1 0
111 2 2.2093021565225136e+01 2.5288622057850205e+01 2.2088788356995011e+01 0 0 1
275 2 2.2473665277530259e+01 2.7793950721107912e+01 1.9051436016001283e+01 2 0 1
420 2 2.3577842745119227e+01 2.6825680878978570e+01 1.9204138450068150e+01 2 1 1
564 2 2.0946749659950491e+01 2.8397029933716340e+01 2.0611310984661088e+01 0 0 0
110 2 2.0931578170051729e+01 2.6192905959407309e+01 2.2459330903652660e+01 0 0 1
634 1 2.1632753856086566e+01 2.8883072756467946e+01 2.0146815837783322e+01 0 0 0
635 2 2.2159888164371132e+01 2.9297092853913327e+01 2.0844722074110468e+01 0 0 0
503 2 2.3239083397772411e+01 2.9275606090775952e+01 2.2567845079180859e+01 1 -1 0
6 2 2.0456196659972676e+01 2.9255027332218084e+01 1.8785009462748835e+01 0 0 -1
109 1 2.1642515395851110e+01 2.5725053922053235e+01 2.2844023172248530e+01 0 0 1
464 2 2.4431980411043838e+01 2.5291412428898717e+01 2.0335684001456563e+01 1 -1 1
463 1 2.4910018011353898e+01 2.6022168862909091e+01 2.0019201583741161e+01 1 -1 1
441 2 2.5599736656147382e+01 2.6074053809600251e+01 2.0700635382850180e+01 1 -1 1
51 2 2.7568750554255086e+01 2.6153445986002907e+01 2.2577141499287777e+01 1 -1 -2
73 1 2.6856606162197092e+01 2.6731418961319932e+01 2.2182334492674137e+01 0 -1 -2
74 2 2.7380697914093801e+01 2.7599180815701729e+01 2.2193849611172759e+01 0 -1 -2
388 1 2.8326889274977450e+01 2.8001453150109597e+01 1.9224108152902289e+01 -1 0 -1
389 2 2.7525982352644558e+01 2.8488802763876834e+01 1.8833389759146701e+01 -1 0 -1
390 2 2.8923461814546123e+01 2.8723297919794284e+01 1.9540338541305019e+01 -1 0 -1
328 1 3.1944038337580501e+01 2.5317053929677748e+01 1.9050776583575772e+01 0 0 0
329 2 3.2482224487321304e+01 2.5938144797248995e+01 1.9578987230362426e+01 0 0 0
259 1 3.3181540014909800e+01 2.6884242167063139e+01 2.0838792694040997e+01 1 -1 0
362 2 3.1981304052653904e+01 2.7667711252022961e+01 2.1952205827220570e+01 -1 1 1
260 2 3.3887392091410113e+01 2.6425169978501359e+01 2.1360482121686488e+01 1 -1 0
261 2 3.3613115431230199e+01 2.7623098971069375e+01 2.0458871287114391e+01 1 -1 0
361 1 3.1402095876212616e+01 2.8423196194954023e+01 2.2350408363134868e+01 -1 1 1
605 2 3.0663333090729083e+01 2.9107448610450788e+01 2.0863456428968099e+01 -1 1 0
440 2 3.3945591761332786e+01 2.4851701524810643e+01 2.3046509735827598e+01 0 -1 0
339 2 3.2044710100727087e+01 2.9159283282934144e+01 2.2510842339903348e+01 0 1 1
337 1 3.8825329939908329e+01 2.7159747796479209e+01 2.1386234462813892e+01 -1 0 0
174 2 3.4233632458446834e+01 2.9435576295042985e+01 1.8869601679870840e+01 -1 -1 0
439 1 3.4530106002295938e+01 2.5359374266529294e+01 2.2513577184464207e+01 0 -1 0
172 1 3.4724166052381605e+01 2.8699252158515566e+01 1.9302977570895834e+01 -1 -1 0
338 2 3.8219187573597665e+01 2.7781918874110332e+01 2.1944555730341282e+01 -1 0 0
243 2 3.8359949820164402e+01 2.6566091713811414e+01 2.0767752525664740e+01 -1 0 0
102 2 3.6821562025866584e+01 2.5757941852406226e+01 1.9109803345551132e+01 -3 -1 -1
100 1 3.7441552176893069e+01 2.5321920168278243e+01 1.9642204665446936e+01 -3 -1 -1
173 2 3.5430685816302685e+01 2.9144290456092492e+01 1.9831890210582959e+01 -1 -1 0
298 1 3.7474793888502290e+01 2.8740442104665163e+01 2.3082513283406705e+01 -1 0 0
629 2 2.2793324888866525e+01 3.3499098386249578e+01 1.8759275306727471e+01 1 0 1
502 1 2.3229978177167645e+01 3.0056955234145953e+01 2.2026804317242281e+01 1 -1 0
504 2 2.2642269500809913e+01 3.0663207522918768e+01 2.2522740281590952e+01 1 -1 0
314 2 2.1131222405254288e+01 3.2581634990708864e+01 2.2354784458633006e+01 0 1 0
211 1 2.0301674650902953e+01 3.3567812613597361e+01 2.1020818304914602e+01 1 -1 1
313 1 2.1797344985484283e+01 3.2007460944746683e+01 2.2862771331253267e+01 0 1 0
292 1 2.6454005335318605e+01 3.0113233243419465e+01 1.8538624224096488e+01 -1 -1 0
88 1 2.7926065000693718e+01 2.9526327920682917e+01 2.2141803679886355e+01 0 0 -1
90 2 2.8817867619582628e+01 2.9670864873629430e+01 2.1764177794133889e+01 0 0 -1
281 2 2.5411134642603752e+01 3.3878848199804345e+01 2.0294101985255317e+01 1 0 1
89 2 2.7212563218226581e+01 2.9980909175910803e+01 2.1568203727956302e+01 0 0 -1
294 2 2.6127957133443644e+01 3.0389782291222879e+01 1.9418068394655684e+01 -1 -1 0
527 2 2.4860400596809434e+01 3.0600126938925513e+01 2.1092457114373683e+01 0 0 0
280 1 2.6054556405575095e+01 3.4163808873810510e+01 2.0947263646935060e+01 1 0 1
528 2 2.5983335511320064e+01 3.1747463060724378e+01 2.1294728931571534e+01 0 0 0
526 1 2.5803580054675631e+01 3.0867186435072110e+01 2.0970566089479505e+01 0 0 0
604 1 3.0015811814066232e+01 2.9704755746908827e+01 2.0437660081058326e+01 -1 1 0
606 2 3.0546606177058504e+01 3.0541557386456091e+01 2.0195647213092649e+01 -1 1 0
233 2 3.1004244741383978e+01 3.2459259761656952e+01 1.9164616939101098e+01 1 1 0
234 2 3.2111797173823440e+01 3.1278860497987598e+01 1.9091731549485154e+01 1 1 0
232 1 3.1505503652420735e+01 3.1790573730726905e+01 1.9704551452578830e+01 1 1 0
153 2 3.2846913256792249e+01 3.2654914324766551e+01 2.0586810298363233e+01 1 1 0
175 1 3.3357864265873722e+01 3.3254519853197856e+01 2.1190547654639527e+01 1 1 0
176 2 3.4001336627148753e+01 3.3669541434419052e+01 2.0601459483307764e+01 1 1 0
428 2 3.2224879498263611e+01 3.4040506112427721e+01 2.1943150868444214e+01 0 0 0
524 2 3.6465941080562104e+01 2.9643057521836855e+01 2.1840258432867337e+01 -2 -1 -1
348 2 3.4323955767445952e+01 3.2455371686832642e+01 2.2245317249370768e+01 1 0 0
180 2 3.7034518280079851e+01 3.2519946759115570e+01 1.8538224507027319e+01 -1 0 1
212 2 3.8770448945503375e+01 3.2898767181704514e+01 2.0516879213453088e+01 0 -1 1
418 1 3.4829140788990649e+01 3.1743851249649847e+01 2.2766671731004287e+01 1 0 0
633 2 3.8329381732659044e+01 3.1072681353860084e+01 1.9348319800018398e+01 0 1 1
523 1 3.6057384524680081e+01 3.0110885645138261e+01 2.1089167696627495e+01 -2 -1 -1
584 2 3.7233403943849630e+01 3.0938816901890533e+01 2.0409514293133014e+01 -1 1 1
583 1 3.7730830467574094e+01 3.1649053730608948e+01 1.9871932799627395e+01 -1 1 1
525 2 3.5522648969084500e+01 3.0811460442232246e+01 2.1516756553012250e+01 -2 -1 -1
213 2 3.8593185406221984e+01 3.4136528654200575e+01 2.1432059504948217e+01 0 -1 1
189 2 3.5394443987308584e+01 3.4165445427917696e+01 1.8883428769747923e+01 -1 0 0
53 2 2.3796142627323725e+01 3.8739471574764607e+01 1.8707350218841899e+01 2 0 0
369 2 2.1619541182387010e+01 3.4628244803970773e+01 2.0550707097028678e+01 0 0 0
391 1 2.2243846177791688e+01 3.4961408909665025e+01 1.9893706456233701e+01 0 0 0
107 2 2.1532499594978706e+01 3.8881710224503465e+01 2.2218138574663271e+01 0 -1 0
392 2 2.1789256525459287e+01 3.5211179194460250e+01 1.9101077194769662e+01 0 0 0
195 2 2.3140510784496875e+01 3.6115910430840984e+01 2.0706549898197110e+01 1 1 -1
36 2 2.2474435622325068e+01 3.7596568032306074e+01 2.2266480112282014e+01 0 -1 0
1 1 2.3716281825488540e+01 3.6634806733176134e+01 2.1323204501243694e+01 0 0 -1
2 2 2.4048690761856321e+01 3.6027302860699969e+01 2.1984848832858098e+01 0 0 -1
106 1 2.1958542777680737e+01 3.8217842835291847e+01 2.2849302935775103e+01 0 -1 0
182 2 2.7351710963424772e+01 3.5500556246916176e+01 1.8749954179969677e+01 0 -1 0
282 2 2.6792658389767912e+01 3.4476547645886441e+01 2.0392640281562802e+01 1 0 1
183 2 2.8717982585354299e+01 3.4643779495166406e+01 1.8811679934196480e+01 0 -1 0
300 2 2.5563727895599744e+01 3.4737148397399402e+01 2.2327820659998753e+01 -1 0 0
377 2 2.4772284701380975e+01 3.7519451175599528e+01 2.0464623579789635e+01 -1 -1 -2
370 1 2.5036360654790585e+01 3.5012702722641457e+01 2.3138603575547201e+01 -1 0 0
376 1 2.5164473681221963e+01 3.8169373009052549e+01 1.9815055658299002e+01 -1 -1 -2
170 2 2.9302779236654384e+01 3.8798769942835108e+01 1.9027247739322554e+01 -1 -1 0
378 2 2.5630718256367985e+01 3.8868420313053569e+01 2.0274541588133268e+01 -1 -1 -2
181 1 2.8111012017055625e+01 3.5292408498040423e+01 1.9316987102064296e+01 0 -1 0
454 1 2.7975634368532354e+01 3.8495000632344713e+01 2.2864632907555940e+01 0 1 0
120 2 2.8772890154604653e+01 3.7707394905216944e+01 2.1256457645378511e+01 1 0 -1
119 2 2.8828112197464989e+01 3.6719760999270520e+01 2.0062567039468480e+01 1 0 -1
118 1 2.9189779661862552e+01 3.7560323189283864e+01 2.0386769513011547e+01 1 0 -1
217 1 3.3164462181194253e+01 3.8916567083960153e+01 2.1321445106286909e+01 -1 -1 -1
218 2 3.3664292243274375e+01 3.8447242660453576e+01 2.2017717648300749e+01 -1 -1 -1
411 2 3.2531480814927178e+01 3.8290987662934810e+01 2.1007793419087392e+01 0 0 -1
96 2 3.2476823382841772e+01 3.6272968678591184e+01 1.9262213541732418e+01 -1 1 0
203 2 3.0807707238116066e+01 3.7113157066340065e+01 2.0359835769260833e+01 0 0 -1
202 1 3.1713473264288460e+01 3.6797357879865956e+01 2.0540723071218324e+01 0 0 -1
132 2 3.1524876122934728e+01 3.6073382159309759e+01 2.1168461018262899e+01 0 0 -1
188 2 3.4109153577312867e+01 3.4971641727604350e+01 1.9162123079017750e+01 -1 0 0
427 1 3.1634968478726286e+01 3.4791747636849664e+01 2.2271551701847127e+01 0 0 0
429 2 3.0865856059877700e+01 3.4321133573707606e+01 2.2458450328563526e+01 0 0 0
283 1 3.4614183307614795e+01 3.7477746187698614e+01 2.3074564745555321e+01 -1 1 0
187 1 3.4854501079528056e+01 3.4466466362537794e+01 1.9595375869929963e+01 -1 0 0
72 2 3.8644390745247179e+01 3.7348712798523330e+01 1.8915940773985618e+01 1 0 0
70 1 3.8186228680147650e+01 3.7903123666761431e+01 1.9609820998343707e+01 1 0 0
269 2 3.5982302397354488e+01 3.5777358911163610e+01 2.0477782101778004e+01 -1 -1 0
71 2 3.7461980069048799e+01 3.7365535202961652e+01 1.9943617121916692e+01 1 0 0
268 1 3.6280851304012558e+01 3.6545601290681390e+01 2.0981385516573592e+01 -1 -1 0
270 2 3.5532118379610708e+01 3.6820020244122546e+01 2.1506274062531126e+01 -1 -1 0
317 2 3.7063425701450811e+01 3.5453909791075077e+01 2.2323557053884880e+01 0 0 1
316 1 3.7667558377949163e+01 3.5043895970474345e+01 2.2853078804890952e+01 0 0 1
252 2 2.4437173493218946e+01 2.1519203914189962e+01 2.3647077926804737e+01 0 1 1
163 1 2.1951957592107846e+01 2.2172251323051327e+01 2.5987986815801495e+01 1 -1 0
164 2 2.2622067216835131e+01 2.2471141848524930e+01 2.6654310398539820e+01 1 -1 0
192 2 2.0708889798922186e+01 2.1330486009078324e+01 2.7140780915189566e+01 1 1 0
165 2 2.2484370976471922e+01 2.1438981363669132e+01 2.5476328602470272e+01 1 -1 0
468 2 2.1123477717277609e+01 2.3441238177101219e+01 2.5240575922165849e+01 1 1 1
538 1 2.0671199495782741e+01 2.4211816281298510e+01 2.4709225671397878e+01 1 1 1
190 1 2.0155049813682755e+01 2.0700139526785801e+01 2.7582832747105208e+01 1 1 0
406 1 2.3587812195748302e+01 2.0322714248068834e+01 2.4722014381610123e+01 2 2 0
37 1 2.4118242407863704e+01 2.3482948253009710e+01 2.7654592163013476e+01 0 0 0
39 2 2.3613177353481120e+01 2.4245278350239030e+01 2.7903912661701078e+01 0 0 0
323 2 2.4946892871706318e+01 2.2950326284242983e+01 2.3562856687081457e+01 0 1 1
136 1 2.7115959389448754e+01 2.1476242324462930e+01 2.5657626380570317e+01 0 -1 0
137 2 2.7863777084349238e+01 2.1234359004889725e+01 2.5000363541898821e+01 0 -1 0
138 2 2.6635657376782238e+01 2.2242512450964885e+01 2.5282623181126556e+01 0 -1 0
500 2 2.6998965377034672e+01 2.0861160468108434e+01 2.7393987933445768e+01 0 1 0
229 1 2.9182767219911504e+01 2.3697898769565327e+01 2.5725533341294124e+01 -2 0 -1
152 2 2.8711291943111853e+01 2.4469571440212952e+01 2.4264227632193485e+01 1 2 0
423 2 2.5408019117159402e+01 2.3553903909095496e+01 2.6145630763926288e+01 1 0 -1
421 1 2.5636360707252088e+01 2.3718425844274716e+01 2.5255628014239136e+01 1 0 -1
422 2 2.5456104763676105e+01 2.4636946308396723e+01 2.4992560300133075e+01 1 0 -1
381 2 2.7763789126024797e+01 2.3945702620994460e+01 2.7848825151972711e+01 -1 1 1
171 2 3.0579720129330354e+01 2.1471645132749391e+01 2.3682740051141987e+01 0 2 0
231 2 2.9702833089031266e+01 2.4159702052946223e+01 2.6422934708085474e+01 -2 0 -1
230 2 2.9470786663497918e+01 2.2836212994792145e+01 2.5744266298506894e+01 -2 0 -1
345 2 3.2240356876863061e+01 2.3475008880728215e+01 2.3584021908493874e+01 1 0 -1
295 1 3.2841722237580399e+01 2.3989812194505447e+01 2.4162414431922279e+01 0 0 -1
506 2 3.3745143173165765e+01 2.1498305870429775e+01 2.6640439334816964e+01 -1 -1 0
505 1 3.3003705153326678e+01 2.0948993346681444e+01 2.6885166138088348e+01 -1 -1 0
49 1 2.9948411156539969e+01 2.1164880886739766e+01 2.4411003274744171e+01 0 1 0
296 2 3.2370220436383732e+01 2.4616160894164917e+01 2.4772567832217181e+01 0 0 -1
50 2 3.0561936291071991e+01 2.0549381191573470e+01 2.4896791469287276e+01 0 1 0
483 2 3.3360819227303530e+01 2.0203317854086357e+01 2.7443868342066722e+01 0 -1 0
572 2 3.8760267610562110e+01 2.3106738521741704e+01 2.3420816183566906e+01 1 0 1
326 2 3.4373865426400044e+01 2.3134586908464495e+01 2.5369716431833197e+01 -1 1 0
573 2 3.8089500847825335e+01 2.1677218021051715e+01 2.3518267071479400e+01 1 0 1
325 1 3.4949124029375312e+01 2.2615164351391368e+01 2.5953320525548399e+01 -1 1 0
327 2 3.5447660937879888e+01 2.3268600967655928e+01 2.6476206464059693e+01 -1 1 0
242 2 3.5982261305106960e+01 2.1425782567346420e+01 2.4493367983969055e+01 -1 0 -2
241 1 3.6490161129540454e+01 2.0766367910407858e+01 2.4041423219802738e+01 -1 0 -2