LAMMPS data file via write_data, version 15 Apr 2020, timestep = 200000

864 atoms
2 atom types

0.0 17.8618911 xlo xhi
0.0 23.1826406 ylo yhi
0.0 21.9441128 zlo zhi

Masses

1 15.9994
2 1.00794

Atoms # atomic

248 2 3.0395546427145055e+00 2.6114884121893307e+00 1.8991756361410770e+00 0 0 0
247 1 2.8533559252272829e+00 2.5480678472857998e+00 9.6076203623323808e-01 0 0 0
249 2 3.7454946240247522e+00 2.0835679997307461e+00 7.0513587168933356e-01 0 0 0
133 1 3.1843021913713692e+00 2.0747360277030529e+00 3.8115031558103318e+00 0 0 0
734 2 1.3888349636341308e+00 1.8134547008081634e+00 3.6620516431725492e-01 0 0 0
135 2 4.0562401449393271e+00 1.7878496352895723e+00 4.2504130902860258e+00 0 0 0
134 2 2.4303707120455629e+00 1.5586306353998327e+00 4.1325698537068805e+00 0 0 0
449 2 2.7633148510539529e+00 4.2542044325281942e+00 3.9322311616078892e-01 0 0 0
450 2 2.1173666246845779e+00 5.7174061373460523e+00 2.2530582493811901e-01 0 0 0
659 2 1.4836062380577937e+00 5.7221984506765429e+00 3.9331947343154638e+00 0 0 0
141 2 4.2032181863005924e+00 5.5984749775364975e+00 4.2759704141919794e+00 0 0 0
521 2 6.9242967279486560e+00 1.8845035612458532e+00 6.3615282286844088e-01 0 0 0
57 2 7.6516150499265416e+00 2.0671875836717275e+00 2.7279825083277722e+00 0 0 0
520 1 7.6583644281743783e+00 2.3036897204666240e+00 1.1237558068363220e+00 0 0 0
522 2 7.6762359498119421e+00 3.2620338434528029e+00 8.6852918888968023e-01 0 0 0
125 2 8.1495825430892204e+00 5.4606417949103490e+00 9.9719102036865936e-01 0 0 0
55 1 7.4535523899729821e+00 2.1526652699481597e+00 3.6384984996008805e+00 0 0 0
126 2 6.6308765059208161e+00 5.4594209018900068e+00 8.7873224922188820e-01 0 0 0
282 2 9.0812591054705472e+00 1.5514360104334184e+00 2.3550094953794140e-01 0 0 0
56 2 8.2378561539507338e+00 1.8881699202379323e+00 4.2112198534472913e+00 0 0 0
351 2 7.2587797417906135e+00 3.8592200134624641e+00 4.4169072877301137e+00 0 0 0
350 2 6.9043952039990266e+00 5.2796437858778784e+00 4.4493557714332823e+00 0 0 0
140 2 4.8549342776639808e+00 5.8914187283704580e+00 2.8129486684994158e+00 0 0 0
124 1 7.4564607620469410e+00 5.0325967685718087e+00 5.2712503233531294e-01 0 0 0
798 2 8.9789595653298573e+00 5.3443884270771536e+00 4.2888592120164795e+00 0 0 0
705 2 6.1463721134029363e+00 1.4004168744932972e+00 4.2887025461812378e+00 0 0 0
158 2 5.3142633999305957e+00 2.5677730873150861e-01 4.1418653259468352e-01 0 1 0
622 1 1.1918831913580892e+01 2.1929706198381793e+00 1.0070349798561455e+00 0 0 0
623 2 1.1841290400723398e+01 3.1286097089862941e+00 8.5878876972333040e-01 0 0 0
614 2 1.2192326481521073e+01 2.1201435947421379e+00 2.7202073523738437e+00 0 0 0
624 2 1.2745294323560381e+01 1.7826584808570760e+00 5.7844407697791000e-01 0 0 0
281 2 1.0592933112260225e+01 1.3028929429263583e+00 3.1636817530253225e-01 0 0 0
613 1 1.2106225480109286e+01 2.0129310694989839e+00 3.6971709192362900e+00 0 0 0
797 2 1.0498311331940315e+01 5.5298758396458707e+00 4.2811711961436156e+00 0 0 0
92 2 1.2526136847845507e+01 5.2588472490677844e+00 1.8080202561835731e-01 0 0 0
796 1 9.6584561735683980e+00 5.9496408685555000e+00 4.0377804193187359e+00 0 0 0
615 2 1.2951448626942874e+01 1.5950528291802972e+00 3.9263664814434294e+00 0 0 0
332 2 1.2216905349915676e+01 3.5230279675973541e+00 4.4490742884348595e+00 0 0 0
681 2 1.0472713311352228e+01 1.3584373888436918e+00 4.4802474202356075e+00 0 0 0
333 2 1.2898130886365797e+01 4.9347911005620233e+00 4.4304105753213561e+00 0 0 0
91 1 1.1645926788490675e+01 4.8368540971577181e+00 1.4901900647973590e-01 0 0 0
680 2 9.4272584042554346e+00 1.8279132735645667e-01 4.3522872816336537e+00 0 1 0
660 2 1.7549425004014111e+01 5.7271698346595210e+00 3.8625583917351882e+00 0 0 0
753 2 1.6281510252594472e+01 2.2821722424406672e+00 2.4882405474530156e+00 0 0 0
751 1 1.6454926004602271e+01 2.2400373639464028e+00 3.4748248084018041e+00 0 0 0
589 1 1.6314971414404077e+01 2.3380833087648445e+00 9.8230118030678504e-01 0 0 0
591 2 1.6262873511874105e+01 3.3838328818666481e+00 7.7346434301052402e-01 0 0 0
590 2 1.7036939023868605e+01 1.8870646209805515e+00 4.5308820979021930e-01 0 0 0
492 2 1.7148770660264503e+01 5.4438432266369281e+00 1.8423066568109192e-01 0 0 0
344 2 1.4780806401360600e+01 5.9231422466020289e+00 5.3304812884676256e-01 0 0 0
468 2 1.4993607977353733e+01 1.5568692262128436e+00 3.0709148285116677e-01 0 0 0
50 2 1.5247089703378169e+01 5.5381362306290782e+00 4.0728123742817282e+00 0 0 0
296 2 1.4091212505475593e+01 5.9294789623813404e+00 2.5162689504362317e+00 0 0 0
752 2 1.6335066814878900e+01 3.1775898303529084e+00 3.8029118439655827e+00 0 0 0
300 2 1.7827425374856475e+01 1.5230366995615403e+00 4.1924239055391022e+00 0 0 0
741 2 1.5186309814572734e+01 1.3431653627602949e+00 4.1415907658281021e+00 0 0 0
49 1 1.6024817809610266e+01 5.0103134567309180e+00 4.3913697626910597e+00 0 0 0
467 2 1.4337332248683877e+01 2.3804992160191674e-01 4.2942211039622952e-01 0 1 0
675 2 4.2416210890133712e+00 6.1720168426705593e+00 6.3196068464148913e-01 0 0 0
109 1 6.8661112863526086e-01 6.5105338240402864e+00 6.9376577071814394e-01 0 0 0
658 1 7.3473056945504656e-01 6.2331180670620876e+00 3.5596086942945901e+00 0 0 0
110 2 6.9412281564332301e-01 6.4652045348456637e+00 1.6297096882373558e+00 0 0 0
177 2 3.9739597714818555e+00 9.7462069266735565e+00 8.6904538652080210e-01 0 0 0
176 2 2.9643403337199827e+00 1.0107774597802294e+01 2.1354508647383796e+00 0 0 0
175 1 3.1163778076856707e+00 1.0082539389368666e+01 1.1075611425213463e+00 0 0 0
111 2 7.1572517132665658e-01 7.5383423359864352e+00 5.0204793631534050e-01 0 0 0
831 2 1.6494815802281118e+00 9.3810958043409904e+00 5.2530414024519378e-01 0 0 0
736 1 2.6558811452050155e+00 9.9361459137861150e+00 3.7099812419766178e+00 0 0 0
738 2 2.9116540229234631e+00 1.0825490937308686e+01 4.0372876892815039e+00 0 0 0
737 2 1.9467826474537369e+00 9.6251279494136632e+00 4.3397917954531851e+00 0 0 0
272 2 4.2591627016172549e+00 9.0887312070113673e+00 4.2014025167215596e+00 0 0 0
444 2 3.0420120100015380e+00 1.1631497424814668e+01 6.0000140830910442e-01 0 0 0
673 1 5.0523718377455751e+00 6.4629623898826427e+00 1.0684273165441616e+00 0 0 0
139 1 4.9650858835127716e+00 6.0086838995556597e+00 3.8343784999312929e+00 0 0 0
518 2 7.4225615336951272e+00 1.0259772215090141e+01 2.1367470777466728e+00 0 0 0
517 1 7.4356932372592963e+00 1.0280919835467721e+01 1.1195205946405364e+00 0 0 0
519 2 7.4655067862620781e+00 1.1197789395034732e+01 7.4205079940358931e-01 0 0 0
674 2 5.3592421218490465e+00 7.3591859692674113e+00 8.2112283653531781e-01 0 0 0
94 1 7.4043112025206543e+00 9.9010840528747828e+00 3.7518387914576818e+00 0 0 0
95 2 6.5628683023474803e+00 9.4144827719616924e+00 3.9351158881834984e+00 0 0 0
96 2 7.2317226303139437e+00 1.0798865694153777e+01 4.1186312304131993e+00 0 0 0
864 2 6.2708086257218820e+00 9.4018253839048960e+00 5.5395013864425569e-01 0 0 0
862 1 5.3675278453357214e+00 9.0095161137316158e+00 2.2809484133950020e-01 0 0 0
648 2 8.9982158420161014e+00 9.7495514635698637e+00 4.9751719120738669e-01 0 0 0
273 2 5.0397401665216064e+00 7.7414121856752365e+00 4.1641279990374187e+00 0 0 0
638 2 1.0515235459567991e+01 6.2546762652388557e+00 1.2315818049909202e+00 0 0 0
637 1 9.7871952770092889e+00 6.7997195986502508e+00 1.5056893016911659e+00 0 0 0
639 2 9.7191667145527365e+00 6.6039673064929207e+00 2.4774314314045416e+00 0 0 0
647 2 9.8648772055625660e+00 8.4828691212508254e+00 5.7318812044853618e-01 0 0 0
166 1 1.1762664721702061e+01 1.0065664977727424e+01 3.8524251447228841e+00 0 0 0
34 1 1.2101784194756435e+01 1.0391033891153594e+01 1.2035117099258397e+00 0 0 0
35 2 1.1864759981618683e+01 1.0139217716087270e+01 2.1122669965703245e+00 0 0 0
36 2 1.1291827261359703e+01 1.0094624699061601e+01 6.8950808652064866e-01 0 0 0
168 2 1.1643421535456286e+01 1.0988032167884766e+01 4.1004962158700735e+00 0 0 0
167 2 1.0993617666882518e+01 9.5602959160716754e+00 4.1567640251540503e+00 0 0 0
207 2 1.3424930910789717e+01 9.4509687256836141e+00 5.0260982221560024e-01 0 0 0
489 2 1.3245669551291540e+01 9.3243583623998951e+00 4.4772680909377343e+00 0 0 0
295 1 1.3965956409172991e+01 6.0833563531082264e+00 3.4508302612954713e+00 0 0 0
343 1 1.3869071939456459e+01 6.1894328806629320e+00 9.4948443281695538e-01 0 0 0
749 2 1.7204641842966225e+01 9.6649462057864568e+00 1.0065033115455622e+00 0 0 0
345 2 1.3774068810286662e+01 7.1326457449973679e+00 7.4059133199602933e-01 0 0 0
750 2 1.6401465254221961e+01 9.9749009169117784e+00 2.3290586032722138e+00 0 0 0
748 1 1.6289194684867894e+01 9.9768983147513737e+00 1.3093354289935366e+00 0 0 0
297 2 1.3749607310385757e+01 7.0022846563064736e+00 3.6653306583160554e+00 0 0 0
206 2 1.4853172006432308e+01 9.0492348973640269e+00 5.5532398750090195e-01 0 0 0
346 1 1.6314401639513925e+01 1.0214040902992142e+01 4.2288380910756604e+00 0 0 0
348 2 1.5486882310829934e+01 9.7151968946914948e+00 4.3782052035796681e+00 0 0 0
487 1 1.4072616733105820e+01 8.7965830453137226e+00 4.4714390266870119e+00 0 0 0
205 1 1.4037741693769874e+01 8.7375400720598613e+00 1.8898816591096573e-01 0 0 0
279 2 2.9691399341541080e+00 3.7024292684082161e+00 4.4914131693812402e+00 0 0 0
298 1 9.0512881651727362e-01 9.8475348284985786e-01 4.5422836740613839e+00 0 0 0
277 1 2.9882756099911565e+00 4.5847116117706870e+00 4.7886440576330873e+00 0 0 0
278 2 3.1440189776489489e+00 4.7086920672385668e+00 5.7338358590032037e+00 0 0 0
561 2 1.8592272676620891e+00 1.5479419751364407e+00 7.5254418370455616e+00 0 0 0
201 2 3.2893063910268374e+00 3.1969085832207327e+00 7.8229486237570613e+00 0 0 0
232 1 3.0633940055687789e+00 4.8834378405638104e+00 7.5203778681040978e+00 0 0 0
234 2 3.9094592030660724e+00 5.2448057849380927e+00 7.8200766053202804e+00 0 0 0
233 2 2.2979858142461795e+00 5.4224830948532485e+00 7.9496579996567505e+00 0 0 0
559 1 1.0099384278358889e+00 1.1872546566997075e+00 7.2140586660283370e+00 0 0 0
199 1 3.3532808138484378e+00 2.2745179435561522e+00 8.1132826573380488e+00 0 0 0
299 2 8.1557858383498283e-01 1.1892704565739238e+00 5.4903352951184408e+00 0 0 0
560 2 8.6359714690278755e-01 3.0626761050457829e-01 7.6259522470703018e+00 0 1 0
357 2 4.9788369093738325e+00 9.4530880095929792e-01 7.6499310790922905e+00 0 0 0
703 1 5.4824297270689257e+00 7.1008597454906142e-01 4.5823948566211401e+00 0 0 0
349 1 7.4675435129871737e+00 4.6741755499511815e+00 4.9006310607340016e+00 0 0 0
355 1 5.7064189895495847e+00 4.5279400581386015e-01 7.1600540687486864e+00 0 0 0
356 2 5.5619264019895471e+00 6.3678229547138354e-01 6.1265282867367912e+00 0 0 0
710 2 6.8903326653119601e+00 1.2227564958809276e+00 7.8335235044816098e+00 0 0 0
784 1 7.6946042365805916e+00 4.2877839584829029e+00 7.7136978181213864e+00 0 0 0
785 2 7.6306542900241627e+00 4.3145609314061542e+00 6.7213696673631391e+00 0 0 0
786 2 7.6167365503629894e+00 3.3021208102340260e+00 7.9643596156405829e+00 0 0 0
711 2 8.4538111776548615e+00 1.3958972800471601e+00 8.1976861656520832e+00 0 0 0
709 1 7.5310492211147189e+00 1.6963531074835707e+00 8.4684789465235664e+00 0 0 0
48 2 6.2342849516698617e+00 5.1843087900577203e+00 8.6857321612926075e+00 0 0 0
633 2 8.9137315686833958e+00 5.3776492057030358e+00 8.1863046884798010e+00 0 0 0
46 1 5.4457136349584010e+00 5.7406083074205245e+00 8.7978933464490510e+00 0 0 0
331 1 1.2101921176501259e+01 4.4636815282735034e+00 4.7873532116247572e+00 0 0 0
679 1 9.5594753945502973e+00 1.1249728082444026e+00 4.7479631367449109e+00 0 0 0
549 2 1.0714329210821266e+01 1.5160194474393955e+00 7.7707070695320599e+00 0 0 0
395 2 1.1000968954861110e+01 5.1629434817639375e+00 7.9046204010506393e+00 0 0 0
69 2 1.2017911924088439e+01 3.3779068110613242e+00 8.0231620566251571e+00 0 0 0
396 2 1.2025132530827097e+01 4.7190019463567978e+00 6.5269118301350755e+00 0 0 0
394 1 1.1840439974252988e+01 4.7588753047735759e+00 7.5004015040056871e+00 0 0 0
68 2 1.2772956631457687e+01 1.9806975874197694e+00 7.8095659255562984e+00 0 0 0
548 2 9.7298946377942030e+00 9.8868334589861218e-01 6.5734382160928959e+00 0 0 0
547 1 9.9458060275074711e+00 9.2875780130551999e-01 7.5602539907341395e+00 0 0 0
67 1 1.2001010341498558e+01 2.3812027940359632e+00 8.2425911052726999e+00 0 0 0
386 2 1.3246355874826714e+01 5.5798329554162907e+00 7.8355090146295714e+00 0 0 0
631 1 9.6671879073337461e+00 5.9125073135331032e+00 8.5248039022239706e+00 0 0 0
312 2 1.7813769934159012e+01 5.7676569146863086e+00 8.0343902890085044e+00 0 0 0
739 1 1.4458957601431541e+01 9.1236065758489115e-01 4.6960190949699534e+00 0 0 0
51 2 1.5971047283830535e+01 4.7492167499154823e+00 5.3594597802935038e+00 0 0 0
81 2 1.7395058230030095e+01 2.0380447977266916e+00 7.8343151354780645e+00 0 0 0
480 2 1.6403019680476298e+01 3.9767158899287529e+00 7.7128968514742420e+00 0 0 0
478 1 1.6384299808956598e+01 4.8752742617517955e+00 7.3922924580297229e+00 0 0 0
80 2 1.5864167760033261e+01 1.7203182356192410e+00 7.8322426559866232e+00 0 0 0
574 1 1.4599412315864098e+01 7.5529944579718367e-01 7.3805385751459678e+00 0 0 0
479 2 1.5519062438395803e+01 5.2942238248931277e+00 7.6338660371721794e+00 0 0 0
79 1 1.6503852109541192e+01 2.2782149841227524e+00 8.2351732097344783e+00 0 0 0
576 2 1.4488533480149881e+01 7.9744319073079339e-01 6.3883998880887995e+00 0 0 0
654 2 9.1061022064489616e-01 7.8612482678076860e+00 4.5618799979429285e+00 0 0 0
310 1 8.5254684614534026e-01 6.3654635375769386e+00 8.3272663013412487e+00 0 0 0
652 1 8.1016301228676380e-01 8.7596194222829151e+00 4.9281457375596904e+00 0 0 0
41 2 2.5114952382043754e+00 9.3531952289037825e+00 7.9711929648102808e+00 0 0 0
727 1 1.0977245774128686e+00 8.7222911795717533e+00 7.4090594170088995e+00 0 0 0
653 2 1.0661985579079081e+00 8.7611172208443442e+00 5.9119186947169338e+00 0 0 0
40 1 3.4333634795185874e+00 9.7799733917010307e+00 8.1789973872879358e+00 0 0 0
729 2 1.0092366733356883e+00 7.8026372674216447e+00 7.7602482616648603e+00 0 0 0
578 2 3.1121485790889372e+00 1.1628522436255345e+01 7.8871532528790853e+00 0 0 0
728 2 2.7935073535361038e-01 9.1866219638943658e+00 7.7872933544659357e+00 1 0 0
271 1 5.1357562463191178e+00 8.6506573985766693e+00 4.5061629427972330e+00 0 0 0
690 2 8.5829866906817749e+00 8.9906743857313618e+00 4.6603297176935117e+00 0 0 0
840 2 5.0069100168083871e+00 8.6441421628308870e+00 7.8090342463049192e+00 0 0 0
838 1 5.6984002352264396e+00 8.2844164355394962e+00 7.2935104319668289e+00 0 0 0
839 2 5.6818157163975034e+00 8.6020177352703673e+00 6.3541821818566655e+00 0 0 0
848 2 6.5929415265986622e+00 9.4781533529005788e+00 8.1004754792275353e+00 0 0 0
849 2 7.2273512779881104e+00 1.1060738045341409e+01 8.1922311045151925e+00 0 0 0
47 2 5.6595426500284169e+00 6.5218417177839321e+00 8.2361497088808218e+00 0 0 0
309 2 8.8393489159582934e+00 9.1600502839491522e+00 8.3085492882139143e+00 0 0 0
847 1 7.2890842975434875e+00 1.0126905146927339e+01 8.4525157162498061e+00 0 0 0
627 2 1.1321068269633223e+01 1.1327588680508038e+01 7.6944249090470231e+00 0 0 0
689 2 9.6225374003989064e+00 7.8182946021300745e+00 4.7842688717270168e+00 0 0 0
688 1 9.5292740400179134e+00 8.7987467800145218e+00 4.9330785221412379e+00 0 0 0
632 2 9.6414750490599292e+00 6.8630625908037333e+00 8.1692187766808200e+00 0 0 0
307 1 9.5591434342590151e+00 8.6288952097283875e+00 7.9259650840914411e+00 0 0 0
684 2 1.1135581622520009e+01 9.4118547342026488e+00 8.2749323060817801e+00 0 0 0
308 2 9.5252803378749586e+00 8.7897406668383447e+00 7.0021592059733546e+00 0 0 0
682 1 1.2001464412756667e+01 9.8838379466707558e+00 8.4029244188930186e+00 0 0 0
347 2 1.7055769690149120e+01 9.6454311199118639e+00 4.5379002391053174e+00 0 0 0
770 2 1.3536977698364701e+01 9.0515983836574581e+00 7.7259877935293053e+00 0 0 0
385 1 1.4049283558472867e+01 6.0665654745141948e+00 8.1243825496544382e+00 0 0 0
488 2 1.4235214994050601e+01 8.5969067832026109e+00 5.3854619495110372e+00 0 0 0
769 1 1.4282091256404692e+01 8.6083672371752815e+00 7.2606457701933342e+00 0 0 0
771 2 1.4049031195640641e+01 7.6832670984714992e+00 7.5016141477669773e+00 0 0 0
494 2 1.5814557369679129e+01 9.3987330374686966e+00 7.8567607412095093e+00 0 0 0
493 1 1.6548933649897016e+01 9.8321597272987766e+00 8.3751734911322249e+00 0 0 0
257 2 1.6425921423320048e+01 1.1588735388717522e+01 7.7633960341753943e+00 0 0 0
200 2 3.2223106770227736e+00 2.1130739085182304e+00 9.0980669008367290e+00 0 0 0
832 1 8.4545361783117912e-01 1.1404997581220924e+00 1.1961126815069088e+01 0 0 0
530 2 3.4342241041639676e+00 5.1620418056749724e+00 1.2023254513279278e+01 0 0 0
531 2 2.8313748607529736e+00 3.7231537543398043e+00 1.2140012284280020e+01 0 0 0
529 1 2.6909502270774133e+00 4.7256813290410777e+00 1.2369056851485485e+01 0 0 0
113 2 2.2097036331903519e+00 1.6082074646432620e+00 1.1298899528154211e+01 0 0 0
114 2 3.7073187078698080e+00 1.6712364521401961e+00 1.1181251130441034e+01 0 0 0
112 1 2.9239693889937577e+00 2.2038992306710203e+00 1.0948155630429563e+01 0 0 0
602 2 1.4699527657294973e+00 5.6837590558016764e+00 1.1583984663332799e+01 0 0 0
834 2 9.5149087002855304e-01 1.1065199934549270e+00 1.2935823160222842e+01 0 0 0
225 2 7.0930894072645083e+00 1.9795669636496309e+00 1.0135081302599014e+01 0 0 0
100 1 5.0238590776698224e+00 6.5137375628665728e-01 1.1960233362003143e+01 0 0 0
101 2 5.8625673987450888e+00 1.0138411516952019e+00 1.1708599098440368e+01 0 0 0
223 1 7.1902786174353857e+00 1.9459243829115045e+00 1.1123742119256923e+01 0 0 0
485 2 7.0996952649969174e+00 3.6983467539243624e+00 1.1781288721702827e+01 0 0 0
484 1 7.0815304530120393e+00 4.6290326482136512e+00 1.2155565153886172e+01 0 0 0
224 2 7.9673222722581407e+00 1.3645625631798255e+00 1.1177209140456155e+01 0 0 0
486 2 7.9799914144822761e+00 5.0878991186256188e+00 1.2093931149265325e+01 0 0 0
620 2 5.7378208055979307e+00 5.7635906026163539e+00 1.1862614559155430e+01 0 0 0
824 2 1.2044538240876335e+01 2.0639633969059066e+00 9.9074469309116147e+00 0 0 0
766 1 9.4814551914831835e+00 7.1850626407393325e-01 1.1772615489516962e+01 0 0 0
845 2 1.1066477138226709e+01 4.8001862655724556e+00 1.1448290881326674e+01 0 0 0
767 2 1.0265201257935159e+01 1.1601598613527870e+00 1.1300516977923953e+01 0 0 0
846 2 1.1993711937038054e+01 3.5590052058920101e+00 1.1511406388320154e+01 0 0 0
844 1 1.1926539826708488e+01 4.4795797405359146e+00 1.1840230836564396e+01 0 0 0
825 2 1.2522731455764617e+01 1.3699389688788952e+00 1.1310640960656922e+01 0 0 0
823 1 1.1768632261520754e+01 1.7672873813002623e+00 1.0863564234047997e+01 0 0 0
768 2 9.6425554524543422e+00 8.5811054228689909e-01 1.2732772522409457e+01 0 0 0
854 2 1.3191390854734633e+01 5.5122343148057462e+00 1.0992056628788093e+01 0 0 0
799 1 9.5624546531070145e+00 5.7909821476864645e+00 1.1430537590391085e+01 0 0 0
801 2 9.2906036347615384e+00 5.7581068659754253e+00 1.0482280037264527e+01 0 0 0
833 2 1.7753979672341792e+01 1.6242730018179223e+00 1.1729247588847819e+01 -1 0 0
367 1 1.4241049458879273e+01 7.6852154065305045e-01 1.2120196201958684e+01 0 0 0
360 2 1.6445382385857030e+01 2.2604221554605646e+00 1.0129297430354328e+01 0 0 0
764 2 1.6882414221025918e+01 5.5774290759883867e+00 1.1819238905162171e+01 0 0 0
763 1 1.6158833022984396e+01 4.9504313078975688e+00 1.2019904562010106e+01 0 0 0
368 2 1.5051068927292354e+01 1.2021054940988023e+00 1.1910865256639267e+01 0 0 0
359 2 1.6189910737991575e+01 3.1766383289378766e+00 1.1343434995786529e+01 0 0 0
358 1 1.6395201175283944e+01 2.2497000399562945e+00 1.1103682716644602e+01 0 0 0
855 2 1.4784892460498797e+01 5.5613699576973037e+00 1.1330361752705331e+01 0 0 0
765 2 1.6040051240173476e+01 4.9423114534385730e+00 1.3009365002143397e+01 0 0 0
552 2 3.2792345308006516e+00 1.1773207581092516e+01 1.1867456814118697e+01 0 0 0
601 1 7.9956060968097387e-01 6.2504509511605884e+00 1.1138778554759037e+01 0 0 0
311 2 7.1761224199172835e-01 6.3720942571924120e+00 9.3367082043664880e+00 0 0 0
42 2 3.3946364733481236e+00 9.8119050496323865e+00 9.1572876560276999e+00 0 0 0
412 1 3.3660325060293417e+00 1.0154086010224189e+01 1.0747341810488759e+01 0 0 0
413 2 3.9277819757767118e+00 9.7047553533744111e+00 1.1377077602324439e+01 0 0 0
85 1 1.2530080131671655e+00 8.9192591562967287e+00 1.1948131290568563e+01 0 0 0
414 2 2.4530712570117474e+00 9.8007039082660139e+00 1.1096231616367080e+01 0 0 0
603 2 1.0061831491019759e+00 7.1552353134587321e+00 1.1420244833349226e+01 0 0 0
87 2 1.2031776021101646e+00 8.7115572757467952e+00 1.2940795609669889e+01 0 0 0
86 2 3.5537412981118166e-01 9.1394982262645588e+00 1.1700875679143261e+01 1 0 0
621 2 4.9136935498970997e+00 6.2142182592170627e+00 1.0568606508297131e+01 0 0 0
619 1 4.8493587253348771e+00 6.2665355320689988e+00 1.1545229693437424e+01 0 0 0
197 2 5.0500453519156752e+00 7.8172363434253382e+00 1.2104260553370828e+01 0 0 0
720 2 7.4444841408142945e+00 1.0156373804883923e+01 1.0170079223025903e+01 0 0 0
196 1 5.1790261939692961e+00 8.7557457914078380e+00 1.2343192911438770e+01 0 0 0
718 1 7.4963823513574201e+00 1.0160667807622467e+01 1.1129122948283825e+01 0 0 0
719 2 6.8308779412356886e+00 9.5408535777316050e+00 1.1384214799793913e+01 0 0 0
198 2 5.6025630639476107e+00 8.7982756630225474e+00 1.3236893005574034e+01 0 0 0
138 2 8.7943418337941317e+00 9.1241440877142210e+00 1.1393291682057455e+01 0 0 0
136 1 9.6746985970455661e+00 8.6575952811193702e+00 1.1653442874289530e+01 0 0 0
683 2 1.2071942439979273e+01 9.9834421945909622e+00 9.3335421423298648e+00 0 0 0
800 2 9.7255438950922937e+00 6.7659634013880456e+00 1.1567610936619662e+01 0 0 0
290 2 1.2119796995595003e+01 1.0729735995943591e+01 1.1699709499985374e+01 0 0 0
137 2 1.0432337085470964e+01 9.2486632512666240e+00 1.1450886008062975e+01 0 0 0
289 1 1.1988324451335901e+01 9.9297229022641655e+00 1.1097790818210473e+01 0 0 0
291 2 1.2851348408407494e+01 9.4027328459134871e+00 1.1326012526181650e+01 0 0 0
853 1 1.4011354418209160e+01 6.0084083873522971e+00 1.0809635640759179e+01 0 0 0
387 2 1.4059842702302108e+01 6.1405457273150761e+00 9.0978817024913656e+00 0 0 0
229 1 1.4055757004476371e+01 8.5414630991590901e+00 1.2008505710646217e+01 0 0 0
495 2 1.6330527663025741e+01 9.8380032217979974e+00 9.3169845702359897e+00 0 0 0
231 2 1.3932748032805401e+01 7.6570850545312643e+00 1.1636864476071029e+01 0 0 0
420 2 1.5574371579817990e+01 9.3346893001999014e+00 1.1697283003348234e+01 0 0 0
419 2 1.6462566539259591e+01 1.0638165314244507e+01 1.1322005894629266e+01 0 0 0
418 1 1.6355199267480216e+01 9.6892363478558732e+00 1.1175902911304258e+01 0 0 0
230 2 1.3893646016731477e+01 8.5471111423544404e+00 1.2983263218094763e+01 0 0 0
165 2 3.0528233414300581e+00 4.5342724793187701e+00 1.4173745612067984e+01 0 0 0
208 1 3.1179612114416213e+00 2.1015228058527233e+00 1.5791779638542167e+01 0 0 0
608 2 1.6965877153960160e+00 1.4875748854556017e+00 1.5081009298174395e+01 0 0 0
164 2 3.1447880028770596e+00 3.6037408125636867e+00 1.5381349239601406e+01 0 0 0
163 1 3.0736460870529556e+00 4.5317361390671307e+00 1.5125605042079734e+01 0 0 0
210 2 3.8831922581572740e+00 1.6883478839200625e+00 1.5420041782592056e+01 0 0 0
607 1 8.8437961367052076e-01 1.0168172893232206e+00 1.4927712734394587e+01 0 0 0
209 2 3.2462335603915111e+00 2.0631511851338900e+00 1.6803436396674599e+01 0 0 0
122 2 1.6212113731029776e+00 5.5074784506690895e+00 1.5559217038485309e+01 0 0 0
314 2 4.4265059767430888e+00 5.6790191856536110e+00 1.5382304547213485e+01 0 0 0
572 2 5.1845579902116743e+00 9.4953404723227652e-01 1.4047985645429653e+01 0 0 0
573 2 6.2856015919094652e+00 1.4340459761837281e+00 1.5159601419373969e+01 0 0 0
816 2 6.6066959327589085e+00 5.4866988365694818e+00 1.5219646901202255e+01 0 0 0
461 2 7.2245937280930912e+00 3.4033506813461676e+00 1.5695051752820014e+01 0 0 0
815 2 7.1538318787040858e+00 4.8289190608753225e+00 1.3970325318822530e+01 0 0 0
460 1 7.7289955508982118e+00 2.5580786019723298e+00 1.5822510509607868e+01 0 0 0
814 1 7.3521384517740707e+00 4.9015215741648923e+00 1.4928240273933092e+01 0 0 0
462 2 7.7837316973155017e+00 2.3528573108249189e+00 1.6784268419838966e+01 0 0 0
571 1 5.3985674953385363e+00 9.7104519151582835e-01 1.5024510471724138e+01 0 0 0
858 2 8.8702182633288089e+00 1.4554753530175986e+00 1.4614193388781128e+01 0 0 0
516 2 8.6842683536853080e+00 5.6900231038773263e+00 1.5090068802519106e+01 0 0 0
857 2 1.0428873998318496e+01 1.4629191983654430e+00 1.4834472718883390e+01 0 0 0
759 2 1.0828512157842184e+01 5.3702651403730899e+00 1.4794243969135007e+01 0 0 0
73 1 1.1504633505637845e+01 2.2563081436217320e+00 1.5635094955217543e+01 0 0 0
74 2 1.1579007996604647e+01 3.1489880892204667e+00 1.5225411029313550e+01 0 0 0
758 2 1.1769282943895616e+01 4.7630163207417500e+00 1.3788233820248053e+01 0 0 0
757 1 1.1698255085551304e+01 4.9450574402379335e+00 1.4721703707914276e+01 0 0 0
75 2 1.2356574963012861e+01 1.8963549520751277e+00 1.5503182686488149e+01 0 0 0
856 1 9.6733543095629564e+00 9.3355819197370749e-01 1.4425822425644160e+01 0 0 0
515 2 9.5118609958464972e+00 5.7562736526620659e+00 1.6399974413427525e+01 0 0 0
722 2 1.1587033586877663e+01 2.2603250325018891e+00 1.7340677251987152e+01 0 0 0
222 2 1.2952007705710058e+01 5.7362843751090962e+00 1.5485894743788204e+01 0 0 0
701 2 1.3934498214357712e+01 8.7365234587524099e-01 1.3850414878056400e+01 0 0 0
700 1 1.3872754732699468e+01 1.1593194210784734e+00 1.4785157628865246e+01 0 0 0
374 2 1.6927186946651858e+01 2.0110163483531602e+00 1.5284997938375282e+01 0 0 0
375 2 1.6169385453166512e+01 3.4071991716966741e+00 1.5316319881944397e+01 0 0 0
702 2 1.4736223502593333e+01 1.5528207062206447e+00 1.4912522784128029e+01 0 0 0
373 1 1.6148350426763415e+01 2.4621397675512209e+00 1.5695925198270663e+01 0 0 0
835 1 1.6040959096342167e+01 4.9000053346889638e+00 1.4735319713466337e+01 0 0 0
837 2 1.6925595391629280e+01 5.3228560411243624e+00 1.5001257925420770e+01 0 0 0
836 2 1.5368108963755036e+01 5.4534040121541540e+00 1.5245693064113505e+01 0 0 0
554 2 1.6290248176379336e+01 2.3620460471714702e+00 1.7456859251009202e+01 0 0 0
221 2 1.3701647197444604e+01 5.8878198888549216e+00 1.6851910586151089e+01 0 0 0
121 1 8.1784110688448985e-01 6.0909383068742198e+00 1.5636151276478650e+01 0 0 0
498 2 2.7229303925183799e+00 1.1512749014198295e+01 1.5033781088352114e+01 0 0 0
123 2 8.3102358198439197e-01 6.2389729318842768e+00 1.6587747596764483e+01 0 0 0
470 2 4.3532625775873015e+00 9.4871305280710594e+00 1.5425945164067933e+01 0 0 0
471 2 2.5772464231144467e+00 9.5054717029594382e+00 1.5211648870096534e+01 0 0 0
469 1 3.4248268769873729e+00 9.9375763638570067e+00 1.5597204143074030e+01 0 0 0
424 1 1.0169797793195396e+00 8.5929825422210939e+00 1.4557162512788551e+01 0 0 0
425 2 8.7330047752520112e-01 7.6550606844245577e+00 1.4903222552480170e+01 0 0 0
389 2 3.4408206969933497e+00 1.0271900384891710e+01 1.7493167967267308e+01 0 0 0
315 2 4.9663306161206195e+00 6.1157875449440686e+00 1.6887434319101729e+01 0 0 0
313 1 4.9530890317209249e+00 6.2973745900744760e+00 1.5892492509364113e+01 0 0 0
283 1 5.7149574655857140e+00 8.7386475015304299e+00 1.5186436054088457e+01 0 0 0
284 2 5.6380875054162800e+00 7.8355903624731686e+00 1.5546916833014640e+01 0 0 0
285 2 6.4629001866332603e+00 9.2226006287747264e+00 1.5523953668865415e+01 0 0 0
570 2 7.9922360216290356e+00 1.0887627540702418e+01 1.5686138915649250e+01 0 0 0
569 2 8.6947035766029899e+00 9.5058429743858674e+00 1.5737133391869442e+01 0 0 0
568 1 8.0661543979392718e+00 1.0078905605241035e+01 1.6161880635647272e+01 0 0 0
276 2 7.8508563633164243e+00 1.0121913736598863e+01 1.7687857031619426e+01 0 0 0
514 1 9.5578980498049173e+00 6.1271220221697931e+00 1.5515381734578945e+01 0 0 0
105 2 9.4382051537787763e+00 8.6930902394059935e+00 1.3462888283500474e+01 0 0 0
103 1 9.7824329585698369e+00 8.6798893691612289e+00 1.4398423611388056e+01 0 0 0
104 2 9.9321114527190790e+00 7.6876093258561866e+00 1.4533044212894627e+01 0 0 0
260 2 1.1125220451416805e+01 9.9601036798370046e+00 1.5489538194544538e+01 0 0 0
261 2 1.1938019696204694e+01 1.1241628479801285e+01 1.5422918333917952e+01 0 0 0
259 1 1.1914383248532143e+01 1.0336170934399771e+01 1.5856330091277208e+01 0 0 0
716 2 1.3214152628040562e+01 9.3087596211792150e+00 1.4945011638806522e+01 0 0 0
432 2 1.1872955148969503e+01 1.0090794458063863e+01 1.7531413611039778e+01 0 0 0
426 2 1.7826807210461297e+01 9.0350894710117018e+00 1.4666278309842475e+01 0 0 0
237 2 1.6485398293374637e+01 1.1518835588334969e+01 1.5097604033234271e+01 0 0 0
220 1 1.3817390104517285e+01 6.0622978555114502e+00 1.5886375603151524e+01 0 0 0
715 1 1.4025746423051592e+01 8.7460512766169458e+00 1.4850801284290197e+01 0 0 0
717 2 1.3849662614923558e+01 7.8888069014883371e+00 1.5144213464163089e+01 0 0 0
455 2 1.5518178701167146e+01 9.3728250374395188e+00 1.5184064693831081e+01 0 0 0
454 1 1.6405141838416505e+01 9.6700318890334138e+00 1.5481654466076918e+01 0 0 0
456 2 1.6357510751276124e+01 9.7776697565143031e+00 1.6431458961624607e+01 0 0 0
733 1 7.1380770953576866e-01 1.3014912555437967e+00 2.1933242308898560e+01 0 0 -1
448 1 2.9299496905665001e+00 5.2142688098181962e+00 2.2114300786557116e+01 0 0 0
463 1 2.7602179489144101e+00 5.1217513595265052e+00 1.9416341820954806e+01 0 0 0
23 2 3.1172100972018293e+00 3.2908488709887020e+00 1.8841801646716124e+01 0 0 0
464 2 2.9090278651730972e+00 5.2157662901274424e+00 2.0429709214589082e+01 0 0 0
22 1 3.2385512521544655e+00 2.3569260909871641e+00 1.8591085522774137e+01 0 0 0
24 2 2.4033432982602529e+00 1.9572024581199685e+00 1.8997525582863343e+01 0 0 0
735 2 8.2054284735772298e-01 1.3976391320471846e+00 2.0979646877687856e+01 0 0 0
465 2 2.0063025934533467e+00 5.6926425601925210e+00 1.9151023970260102e+01 0 0 0
301 1 1.0109848784195652e+00 1.2475445647292926e+00 1.9386821832067522e+01 0 0 0
434 2 4.1033761607124450e+00 5.9534256931487297e+00 1.8777402775651097e+01 0 0 0
852 2 4.4801787798923858e+00 1.4032295610752910e+00 1.9211577227373372e+01 0 0 0
302 2 1.1009603954997194e+00 2.8430103770863607e-01 1.9170874342679706e+01 0 0 0
157 1 5.2385636166059060e+00 1.1297145731786364e+00 2.2139604537726566e+01 0 0 -1
850 1 5.3153924236714296e+00 8.3661774748821560e-01 1.9423143782182606e+01 0 0 0
59 2 6.7061047729779659e+00 1.8537588880287186e+00 1.8920452336708486e+01 0 0 0