LAMMPS data file via write_data, version 15 Apr 2020, timestep = 200000

864 atoms
2 atom types

0.0 17.8618911 xlo xhi
0.0 23.1826406 ylo yhi
0.0 21.9441128 zlo zhi

Masses

1 15.9994
2 1.00794

Atoms # atomic

705 2 4.3525397165288711e+00 9.1904742820516638e-01 9.2899113405977685e-01 0 0 1
734 2 3.3063944751764698e+00 3.3239132085280501e+00 1.3553791836945419e+00 0 0 0
733 1 3.7186803058431495e+00 3.9342534723033493e+00 1.9757704066966542e+00 0 0 0
735 2 4.3119762301663842e+00 3.3329328473471724e+00 2.5097362505184106e+00 0 0 0
762 2 4.4079044464880708e+00 4.7297902490222814e+00 6.7590637448149193e-01 0 1 0
514 1 1.4761725217908996e+00 4.0237695263661666e-01 3.0109903152669850e+00 0 0 0
515 2 2.1136401408744465e+00 8.8741832361943274e-01 2.5464140341615309e+00 0 0 0
55 1 4.7982351884440098e+00 2.2608809242925672e+00 3.9329242317592819e+00 0 0 0
57 2 5.3344200343332808e+00 1.4221945358723513e+00 4.0814798722695427e+00 0 0 0
726 2 6.5869314367022920e+00 3.5877385650334759e+00 3.7884286526334123e+00 1 1 0
255 2 7.5904954744101572e+00 4.1330468797712481e+00 1.8148082493384268e+00 0 0 1
118 1 8.6070648971574766e+00 7.7638303933945929e-01 1.7647927419158933e+00 0 0 0
724 1 7.3559730301470765e+00 4.2047237254290311e+00 3.5770340519669728e+00 1 1 0
120 2 7.8176517296313950e+00 4.9562834510735954e-01 2.3370400306125267e+00 0 0 0
119 2 8.5726028539485544e+00 1.7313354539591324e+00 1.8968298741310590e+00 0 0 0
253 1 8.0066059147207600e+00 3.6844536809212927e+00 1.0626693088113308e+00 0 0 1
254 2 7.3568292097781596e+00 3.3230810519505432e+00 3.9807512424443592e-01 0 0 1
618 2 9.0240140167884668e+00 3.3183672160271520e+00 3.8618128998520880e+00 0 0 1
617 2 9.4270828594158829e+00 1.8548083079753490e+00 4.2441048479090480e+00 0 0 1
84 2 1.2356050779963269e+01 1.6168142482957779e+00 2.9083032985375286e+00 0 0 0
616 1 9.7109060771702289e+00 2.7994302031890919e+00 4.2930234825361362e+00 0 0 1
82 1 1.2503374372702767e+01 8.6219312002423099e-01 2.3165229964267740e+00 0 0 0
3 2 1.3007050186066438e+01 1.0708909926936430e+00 3.6143134309218844e-01 0 0 1
314 2 1.2619665471146993e+01 4.7503547996874307e+00 3.8225876807595900e+00 0 0 0
408 2 1.5213489685746946e+01 2.0698203104364170e+00 1.9532209941905345e+00 0 0 1
407 2 1.4732770909240847e+01 3.2152671108276976e+00 9.4810916534252154e-01 -1 0 1
406 1 1.5234112307226273e+01 2.3598825651295177e+00 1.0141888173066653e+00 0 0 1
699 2 1.6007870238467259e+01 1.8053691978452320e+00 4.1476257278089639e+00 -1 1 0
697 1 1.5990998356753250e+01 1.2911205864327506e+00 3.3264360494750447e+00 -1 1 0
698 2 1.6916058813458470e+01 9.8137193621322394e-01 3.1829830114858484e+00 -1 1 0
455 2 1.5423609956399144e+01 5.6648070226724823e-01 3.9245329031147019e-01 -1 1 1
243 2 1.7028004736338534e+01 2.7832282253344047e+00 3.7077793898096445e-01 0 0 1
594 2 1.4690936329272093e+00 6.2370131238599731e+00 2.0537364110130589e+00 1 0 0
593 2 2.8640890094755576e+00 5.5354813461862102e+00 1.9176997259060502e+00 1 0 0
592 1 2.4370590925380466e+00 6.3991469471527891e+00 2.0838925836339746e+00 1 0 0
738 2 1.8905968305831298e+00 7.9003616120811326e+00 3.3119315566818393e+00 0 0 0
754 1 2.7524681312267525e+00 8.8232927756434449e+00 9.0167625164932441e-01 1 1 0
737 2 1.3325829336421839e+00 9.3102812422162078e+00 3.0141276203375251e+00 0 0 0
736 1 1.4007087949778985e+00 8.6445065180682441e+00 3.7339880995254555e+00 0 0 0
755 2 2.8583667147380276e+00 7.8573687941190951e+00 1.2761576652338351e+00 1 1 0
68 2 3.1022927874302240e+00 5.8637335713440288e+00 4.5675101201778698e+00 0 0 0
714 2 7.6472736239343364e+00 9.4504025787188013e+00 3.0388428900340521e+00 0 0 0
725 2 7.2685246073814502e+00 5.1086905698820333e+00 3.9337216498776222e+00 1 1 0
39 2 8.5139645094539382e+00 8.3105945186493138e+00 4.9904592968335670e-01 0 1 1
835 1 8.9191974130362031e+00 8.3168417834779529e+00 3.7787780870855823e+00 0 0 0
269 2 1.2160549139574400e+01 7.1238060970629000e+00 2.9901477157929901e+00 -1 0 0
270 2 1.1671808020516412e+01 8.4501180660218438e+00 2.1541791867627866e+00 -1 0 0
268 1 1.1365439772102954e+01 7.5698825752683465e+00 2.5842055355983282e+00 -1 0 0
836 2 9.7477199115352970e+00 7.9944605412687881e+00 3.3321902987441319e+00 0 0 0
38 2 9.6266155373038718e+00 7.7168280005637682e+00 1.4832796577609357e+00 0 1 1
313 1 1.3013861580429051e+01 5.6439220775116450e+00 3.6947163483219088e+00 0 0 0
37 1 9.4421837570696674e+00 8.1658073179602155e+00 6.5861364282341062e-01 0 1 1
413 2 1.1788825088845133e+01 6.6113157920986447e+00 7.6931404210482723e-01 0 0 1
405 2 1.3748668637252628e+01 5.4122875572617311e+00 2.1012007176962966e+00 0 0 0
403 1 1.4234527880850862e+01 5.1173505579259269e+00 1.3026636534150198e+00 0 0 0
404 2 1.3575467677937596e+01 5.4782423321853910e+00 6.6168707991056419e-01 0 0 0
560 2 1.6535394790215815e+01 6.2969823341962767e+00 3.0973891245301215e+00 0 0 0
559 1 1.7005186197293074e+01 6.6921538941648597e+00 2.2876117074377351e+00 0 0 0
561 2 1.6474638910060069e+01 6.2997786839989427e+00 1.5565236385738679e+00 0 0 0
627 2 1.6494569970278757e+01 8.2304984938773007e+00 1.5783277313569717e+00 0 0 1
421 1 1.4515179320567132e+01 9.6284546310458818e+00 3.9188846252422662e+00 0 0 0
315 2 1.3932526273681040e+01 5.5715885715681681e+00 4.0802737520014318e+00 0 0 0
626 2 1.6856643489008487e+01 9.5654214452199771e+00 7.4720424206541713e-01 0 0 1
625 1 1.6192053609174344e+01 9.0403264325792367e+00 1.2003397474962949e+00 0 0 1
423 2 1.5386044437640864e+01 9.2717956289237318e+00 3.7677684724429334e+00 0 0 0
422 2 1.4091968439672200e+01 8.9493068482781730e+00 4.5561820472496324e+00 0 0 0
614 2 9.5381613491312778e-01 1.1605176218610886e+01 3.8506700319179643e+00 0 0 0
336 2 2.9378430282290120e+00 1.1777567951646764e+01 1.7138188120754252e+00 0 0 0
510 2 2.9883502811102174e+00 1.1490454440042257e+01 4.1446877540981273e+00 0 0 1
334 1 2.5402765902021374e+00 1.1181882201614828e+01 2.3521580221193381e+00 0 0 0
335 2 2.9435870480942992e+00 1.0309849092510808e+01 2.1048853572861361e+00 0 0 1
838 1 3.3499814079656809e+00 1.3239189882668231e+01 4.1063508009750510e-01 0 0 1
713 2 6.2502023777630491e+00 1.0072904192302612e+01 3.6577534055756584e+00 0 0 0
712 1 6.9155978357009973e+00 1.0103975915678150e+01 2.8688180196785904e+00 0 0 0
590 2 7.5636065330022388e+00 1.1815200308283316e+01 2.9415138928699887e+00 0 0 1
602 2 6.3731410470081693e+00 1.3802259698939304e+01 7.7867148659766960e-01 0 0 0
591 2 8.1544260730852898e+00 1.2721867212637319e+01 3.9658489313046128e+00 0 0 1
589 1 8.1256159911504700e+00 1.2649988707423510e+01 3.0106122385696130e+00 0 0 1
603 2 6.7034582849349791e+00 1.3879283542295825e+01 2.3486654496008130e+00 0 0 0
601 1 6.6027616897019117e+00 1.4427760100869625e+01 1.5040195148570217e+00 0 0 0
178 1 5.7926226289088536e+00 1.1990815858931281e+01 5.2313534389938565e-01 0 0 0
179 2 5.7326820247542178e+00 1.1115171507615367e+01 9.3177321696194815e-01 0 0 0
180 2 4.9037794289470780e+00 1.2329078244938703e+01 5.1590276010393543e-01 0 0 0
322 1 1.2350271118072763e+01 1.0182684230128153e+01 2.5418303207668593e+00 0 0 0
323 2 1.1647918812002441e+01 1.0425824629419722e+01 3.1153025376863122e+00 0 0 0
265 1 9.5107220289969696e+00 1.2504031776071612e+01 6.3651474589768331e-01 0 0 0
267 2 9.0750404644657188e+00 1.2524098398783718e+01 1.5010673382160891e+00 0 0 1
127 1 1.0923762499417851e+01 1.1319886308218939e+01 4.4572721437144871e+00 0 0 0
798 2 1.1755468910374605e+01 1.2956697269342373e+01 3.4881770410959247e+00 0 0 0
796 1 1.2316047364806902e+01 1.3511437905337512e+01 2.9354927129043187e+00 0 0 0
797 2 1.2609626252957689e+01 1.2937446127461291e+01 2.1409851666202426e+00 0 0 0
579 2 1.2921276756792436e+01 1.1158003559218701e+01 1.4708550086579149e+00 0 0 0
324 2 1.3173080747930188e+01 1.0083080515626378e+01 3.0640938890770744e+00 0 0 0
613 1 1.7283573975393800e+01 1.1270740917674193e+01 3.9960866760408886e+00 -1 0 0
521 2 1.6648324454912085e+01 1.3903969773804972e+01 1.4857786248383780e+00 -1 0 0
577 1 1.3160072818753063e+01 1.1981335060831446e+01 9.5708492240367837e-01 0 0 0
578 2 1.4126335827088440e+01 1.2065157394572120e+01 9.9432652495781038e-01 0 0 0
369 2 1.6796130072408680e+01 1.1886762410695189e+01 2.4556929177179767e+00 -1 0 1
367 1 1.6323893505481792e+01 1.2280925296108498e+01 1.6173321379123915e+00 -1 0 1
368 2 1.6673559687457249e+01 1.1774317977349057e+01 8.9727633095327608e-01 -1 0 1
852 2 1.3584701112981056e+01 1.3878531528088795e+01 3.9781700152797739e+00 0 0 1
170 2 3.8209322234568273e+00 1.5907164174884567e+01 2.2588489540814072e+00 0 0 0
680 2 1.7873247139405486e+00 1.7844969183737394e+01 2.9347200295252724e+00 0 0 0
679 1 2.1160918064821690e+00 1.8504388872664244e+01 3.5834231896985518e+00 0 0 0
681 2 1.5391270293649171e+00 1.8335209010217259e+01 4.4055153509907141e+00 0 0 0
359 2 3.8397050998529894e+00 1.9116666560835306e+01 4.2945138877575832e+00 0 0 0
246 2 1.1393983911116146e+00 1.5864889660208997e+01 1.5260914784096384e+00 0 -1 1
244 1 1.7847715879247010e+00 1.6577961746939916e+01 1.5676791024144243e+00 0 0 1
245 2 1.5748924587180100e+00 1.7129879721355557e+01 8.2587073515888065e-01 0 0 1
169 1 4.6911900797371038e+00 1.5875960024339133e+01 2.5910864680908934e+00 0 0 0
26 2 5.1520549011037131e+00 1.4782401512389473e+01 3.9831884939083722e+00 0 0 0
171 2 5.2825873133794028e+00 1.5391654550971497e+01 1.9192157660480613e+00 0 0 0
58 1 6.3675353394858130e+00 1.8071491471652763e+01 2.6616460666683390e+00 0 0 0
59 2 7.0977457714067151e+00 1.7747398283743010e+01 2.1541553550949888e+00 0 0 0
60 2 5.7418456256163282e+00 1.7313129754173247e+01 2.6807384860562515e+00 0 0 0
109 1 7.8202983613083292e+00 1.6742145519238690e+01 7.4055961578772678e-01 0 0 1
110 2 8.6580113497026261e+00 1.7192388878734977e+01 7.6298403774380785e-01 0 0 1
668 2 5.1555901418658694e+00 1.8041691368509930e+01 5.2367958215631316e-01 0 0 0
111 2 7.9426977902548428e+00 1.5944279047013978e+01 1.2707420863119854e+00 0 0 1
360 2 5.3307257223581521e+00 1.9147212249961989e+01 4.3769843642609496e+00 0 0 0
155 2 1.0277511260125335e+01 1.5407679164778770e+01 4.2158556532612872e+00 0 0 0
831 2 1.1274456703618341e+01 1.4788481857254341e+01 2.4180786191345436e+00 0 0 1
829 1 1.0650257250960570e+01 1.5571403774542597e+01 2.5207475271786355e+00 0 0 1
830 2 1.1252654889686371e+01 1.6396638868754991e+01 2.2756415821087699e+00 0 0 1
775 1 1.2739733706502477e+01 1.7357654662802297e+01 2.0119283381346458e+00 -1 0 1
777 2 1.2701187768707204e+01 1.8366675990162886e+01 1.8748707686095560e+00 0 0 1
343 1 9.9714277806896785e+00 1.8637835173736438e+01 1.2208905743199638e+00 -1 0 1
344 2 1.0528077667519103e+01 1.8257531853562497e+01 4.7376440305781875e-01 -1 0 1
520 1 1.6757186343845621e+01 1.4839597803783969e+01 1.2896428884917182e+00 -1 0 0
497 2 1.3457087594843145e+01 1.7330743128684919e+01 4.0034923381724425e+00 -1 0 1
851 2 1.4868802280157306e+01 1.4661672586512564e+01 4.5367256949478101e+00 0 0 1
776 2 1.3215946461356335e+01 1.6994994008352897e+01 1.2666019333305145e+00 -1 0 1
201 2 1.7343649867681780e+01 1.5217139194854775e+01 3.5761851739665285e+00 -1 0 0
199 1 1.6807775250077029e+01 1.5765595108700662e+01 4.1625239548471189e+00 -1 0 0
535 1 1.5734805751655950e+01 1.8129434152293033e+01 3.9224278036788101e+00 -1 0 0
536 2 1.6262322018256821e+01 1.7307107425404059e+01 3.9055234686925706e+00 -1 0 1
537 2 1.5611733672105890e+01 1.8291322749386008e+01 2.9862308050320241e+00 -1 0 0
502 1 1.6005231549362179e+01 1.8214086356363786e+01 1.0468118599605627e+00 -1 -1 0
522 2 1.7082750287919591e+01 1.4929609497016354e+01 3.4202333268653945e-01 -1 0 0
684 2 1.5039694833238054e+01 1.6342361610846268e+01 3.5993990592176317e-01 -1 0 1
504 2 1.6854788896994311e+01 1.8534395875472903e+01 7.8577282092309630e-01 -1 -1 0
503 2 1.5411006212326932e+01 1.8817967752777790e+01 6.3963810280450772e-01 -1 -1 0
703 1 4.4272197308784769e+00 2.3595069239733970e+01 1.3388178062054112e+00 0 -1 0
107 2 1.5412237760967289e+00 2.0080492849988534e+01 1.0360703610320614e+00 0 -1 0
224 2 8.6228589431183067e-01 2.1257628338054360e+01 3.0016612526670041e+00 0 0 0
225 2 2.0659613325553634e+00 2.0340575127047703e+01 2.9108166846180707e+00 0 0 0
223 1 1.7132903238461079e+00 2.1180775665609961e+01 2.5515722167318273e+00 0 0 0
516 2 1.8250880785286447e+00 2.3008074876444901e+01 2.9889146127654329e+00 0 -1 0
106 1 1.5082750841482275e+00 1.9379887370862022e+01 3.5165872256126729e-01 0 -1 0
310 1 6.2625717242284225e+00 2.3612412669648084e+01 3.2248987448877520e+00 0 0 0
312 2 5.5891184858421674e+00 2.3536157259126970e+01 2.4541917126949180e+00 0 0 0
704 2 4.8379324074470418e+00 2.3051838959038719e+01 7.1059484324646238e-01 0 -1 0
233 2 7.8882479773973770e+00 2.0035809979948080e+01 4.3976688316883559e+00 0 -1 0
370 1 6.8328226603763937e+00 2.0314561626340847e+01 1.3422711381041434e+00 0 -1 0
372 2 6.5067680115493900e+00 1.9446048288973476e+01 1.5844585009747763e+00 0 -1 0
234 2 7.4700607935697496e+00 2.0736508541237683e+01 3.0839075006230239e+00 0 -1 0
232 1 7.8179662607059743e+00 2.0881095010191686e+01 3.9644452946857989e+00 0 -1 0
371 2 7.5395979016318950e+00 2.0268820812396630e+01 6.9543593840351159e-01 0 -1 0
311 2 5.8454533165795173e+00 2.3233307578884471e+01 3.9920439979188189e+00 0 0 0
83 2 1.2002940268957923e+01 2.3630494242985371e+01 2.5201214987816458e+00 0 0 0
345 2 1.0434864094079327e+01 1.9262141889230328e+01 1.7866312037700192e+00 -1 0 1
278 2 1.0307170045536594e+01 1.9390468841489266e+01 4.5614686952069166e+00 0 -1 0
277 1 1.0431834884036164e+01 2.0128687743652605e+01 3.8826686437436293e+00 0 -1 0
89 2 1.1537724738130917e+01 2.1509902621098579e+01 4.1750206444829754e+00 0 -1 0
279 2 9.6365482152610351e+00 2.0549422542552190e+01 3.6185200609591948e+00 0 -1 0
88 1 1.2132791203028976e+01 2.2296301167525950e+01 4.3474219934107046e+00 0 -1 0
812 2 1.3372596820636463e+01 2.0798191958314455e+01 8.3458632112337305e-01 0 0 1
811 1 1.3650930656246354e+01 2.0139967556905354e+01 1.5458417245314071e+00 0 0 1
849 2 1.6352475386619908e+01 1.9829999533517331e+01 4.1890669242402332e+00 -1 0 1
847 1 1.6597208646553952e+01 2.0775948375720805e+01 4.0886264467960469e+00 -1 0 1
848 2 1.5777387633928306e+01 2.1280470042417132e+01 3.9679957960461310e+00 -1 0 1
125 2 1.5193617534466473e+01 2.3341627804615321e+01 3.3244228215740295e+00 0 0 1
813 2 1.3694976407711977e+01 2.0739945138619028e+01 2.3196061728903543e+00 0 0 1
124 1 1.4722235802261805e+01 2.2496367889217421e+01 3.6048510912653837e+00 0 0 1
126 2 1.3893455063139150e+01 2.2833436944300633e+01 3.9851413706995498e+00 0 -1 1
454 1 1.5666935333810160e+01 2.3165463176777241e+01 5.2921454110969446e-01 -1 0 1
218 2 3.9690739111588091e+00 2.7504587903172570e+00 7.0625438126147060e+00 0 1 0
326 2 4.4618958270012712e+00 4.6322425261060118e+00 5.9204263767333369e+00 1 1 0
217 1 3.1580271150086316e+00 2.2688286448037114e+00 7.3966979267989217e+00 0 1 0
216 2 1.5736833982253504e+00 2.9087191788480107e+00 7.5736282662464518e+00 1 0 0
219 2 2.8207226952614017e+00 1.6574914293606973e+00 6.7287980138308487e+00 0 1 0
214 1 6.3404709672542192e-01 3.2551525585260457e+00 7.5932462174285087e+00 1 0 0
17 2 1.2601830684020083e+00 4.9612319327668502e+00 7.6903292361155202e+00 0 0 0
78 2 4.1014567324095337e+00 1.1372074275975093e+00 8.3824797718099262e+00 0 1 0
654 2 2.1875660860133710e+00 7.3719051648311329e-01 4.8709109173209901e+00 0 0 0
56 2 4.7572144916279893e+00 2.6845711710531925e+00 4.7799055709722600e+00 0 0 0
325 1 4.8705040393963852e+00 3.8407331753001550e+00 6.2905306059921902e+00 1 1 0
327 2 5.8488114179574806e+00 3.9888299003165608e+00 6.2247114992564834e+00 1 1 0
781 1 7.4282196234626614e+00 3.1630431184631944e+00 7.4104277132201632e+00 0 0 0
782 2 7.3955940430680291e+00 2.1682514276798703e+00 7.2993755873517427e+00 0 0 0
783 2 8.2421572219512331e+00 3.4258900539867927e+00 6.9390295864152218e+00 0 0 0
832 1 6.7496888830892656e+00 6.9816183204216997e-01 6.4852367002991356e+00 0 0 0
834 2 7.5056696781971084e+00 5.3169501381845641e-01 5.7826223803900980e+00 0 0 0
77 2 5.6212069071127386e+00 6.3637843362890822e-01 8.2067526634301320e+00 0 1 0
76 1 4.8144592958051593e+00 5.9600094461538622e-01 8.7744560918252361e+00 0 1 0
828 2 1.1491905643841639e+01 2.8356067412734984e+00 4.6435496451283278e+00 0 0 1
468 2 9.4075849352886500e+00 4.4127874094447179e+00 5.3121312515492658e+00 0 0 1
466 1 9.1467131407212658e+00 4.8677108650341641e+00 6.1087730695572917e+00 0 0 1
827 2 1.2833572186051974e+01 2.6211090039673914e+00 5.2756329877002512e+00 0 0 1
574 1 1.2041745914393237e+01 3.2111219865050815e+00 7.8072132387285613e+00 0 0 0
576 2 1.1533334699883797e+01 2.3968694183960269e+00 7.6230874817816927e+00 0 0 0
826 1 1.2395734644120163e+01 3.1235045592111090e+00 4.6228511568686788e+00 0 0 1
575 2 1.2979475527980060e+01 2.9468088942689201e+00 7.7803440124767009e+00 0 0 0
202 1 1.0504446221079373e+01 9.9160142317858568e-01 7.0385542601051085e+00 -1 1 0
203 2 9.7694088570146977e+00 6.2249509790506607e-01 7.7290826607647336e+00 -1 1 0
744 2 1.1830637925464359e+01 4.6429045529138619e+00 7.1338838770250250e+00 0 0 0
215 2 1.7415389222808855e+01 2.6000352058542506e+00 8.1680637671966885e+00 0 0 0
606 2 1.5554741787511267e+01 2.6419032963838585e+00 5.9789962148677720e+00 -1 0 0
604 1 1.6199155410140968e+01 3.0873309024721585e+00 5.3337776109632671e+00 -1 0 0
238 1 1.4608188372321829e+01 2.6100591576462406e+00 7.3871259202633350e+00 0 0 0
605 2 1.7002875828727763e+01 2.9943769817518353e+00 5.9275271818329180e+00 -1 0 0
239 2 1.5144597294026481e+01 3.4288578353760819e+00 7.5992942934681995e+00 0 0 0
240 2 1.5029260162902546e+01 1.9371717748075563e+00 7.8883645530009998e+00 0 0 0
854 2 1.5975068822019576e+01 4.8903894910880163e+00 5.0330749498935843e+00 0 0 0
79 1 1.6362518033200054e+01 1.3806234828576183e+00 8.8550007660032399e+00 0 0 0
81 2 1.6193102776895493e+01 4.0362524022626950e-01 8.7197513053133235e+00 0 0 0
67 1 3.6302862008943237e+00 6.1199681913202770e+00 5.3371890736296024e+00 0 0 0
69 2 2.9953840683081405e+00 5.9878854980874792e+00 6.1507708147983289e+00 0 0 0
16 1 1.5577608644597456e+00 5.8263535167934419e+00 7.4523229119135648e+00 1 0 0
662 2 3.9449702307216095e-01 7.5512742587320227e+00 6.6875159621105293e+00 1 0 0
18 2 1.6916058715141742e+00 6.3550348121934048e+00 8.3297305295755759e+00 1 0 0
663 2 3.6064210088160858e-01 8.2558091991999394e+00 5.2621236492511194e+00 1 1 0
476 2 7.7102887595791003e+00 6.9584993714843986e+00 4.6394827703953716e+00 0 0 0
475 1 7.1994708732880301e+00 6.4185130182869257e+00 5.2313254980137129e+00 0 0 0
276 2 4.6271695274329954e+00 7.3619329580822566e+00 5.8479888098609978e+00 0 0 0
274 1 5.3766492647370887e+00 7.7800648375094710e+00 6.3233852311498184e+00 0 0 0
275 2 5.0392834161348388e+00 7.8166809583749872e+00 7.2173985051356873e+00 0 0 0
477 2 6.5814681272319868e+00 6.9925615128204432e+00 5.7327633895452532e+00 0 0 0
467 2 8.4721657798683498e+00 5.5056223238226849e+00 5.7984946904099592e+00 0 0 1
773 2 5.4941717822205121e+00 9.3847824773341468e+00 5.6801011115900755e+00 0 0 0
198 2 5.1434473291881773e+00 9.6408234058198499e+00 8.6677655667405187e+00 0 0 0
837 2 9.1912194072372593e+00 8.5041872542193460e+00 4.6861152460710835e+00 0 0 0
764 2 8.8965453863382749e+00 8.0545892613753569e+00 8.0957185965316931e+00 0 0 0
856 1 9.3988691959123916e+00 9.1669091436165289e+00 6.3445223603028778e+00 0 0 0
743 2 1.0884693364269891e+01 5.7836219390085866e+00 6.5865265705629223e+00 0 0 0
742 1 1.1733311258369202e+01 5.6593827247779558e+00 7.0189558614891565e+00 0 0 0
366 2 1.2639063526539889e+01 7.1097754155244166e+00 5.7856526384686164e+00 0 0 0
479 2 1.1515668635982349e+01 6.4872281957158062e+00 8.5288148040448259e+00 0 0 0
501 2 1.2754983815996939e+01 9.6547232611254952e+00 6.7277946893856582e+00 0 0 0
858 2 1.0315304198015035e+01 9.3164682624027684e+00 6.5520016404054280e+00 0 0 0
853 1 1.5749435961118529e+01 5.7406899948910599e+00 4.6371084708440868e+00 0 0 0
505 1 1.5470601468385453e+01 5.1456259450673167e+00 7.8884222158594985e+00 0 0 0
855 2 1.5733797111040310e+01 6.4349605126832543e+00 5.3269333573295272e+00 0 0 0
364 1 1.3233620422225757e+01 7.8686107197489088e+00 5.9734706350728217e+00 0 0 0
365 2 1.3406296570302199e+01 7.6693494426132727e+00 6.9129885497973058e+00 0 0 0
157 1 1.4228442281140024e+01 7.3733054367705915e+00 8.5786815471520335e+00 0 0 0
661 1 1.6997124840269638e+01 7.9116192136582519e+00 6.0272398745564066e+00 0 1 0
506 2 1.6396104177540014e+01 5.4065029939542288e+00 7.8473158907086162e+00 0 0 0
507 2 1.5119000094540050e+01 6.0196372783779681e+00 8.1923690652748906e+00 0 0 0
147 2 1.5134150216165555e+01 9.2906942752468034e+00 7.0457871612175946e+00 0 0 0
508 1 3.4530826529368714e+00 1.1931430417422492e+01 4.9075145857261475e+00 0 0 0
226 1 8.1467916567431886e-01 1.0310004227229038e+01 8.2978902743672975e+00 1 0 0
509 2 3.7091825443117807e+00 1.2837061990643466e+01 4.6775009445755069e+00 0 0 1
339 2 2.9938662300355081e+00 1.2009481646648332e+01 6.7007028344714161e+00 1 0 0
337 1 2.9178294308548902e+00 1.1994379323466472e+01 7.6594977522939853e+00 1 0 0
771 2 2.2090914169271287e+00 1.4136620329297813e+01 8.2069699196997572e+00 1 0 0
338 2 3.6575854994747856e+00 1.1340349998530851e+01 7.9162798526843403e+00 1 0 0
228 2 1.4618607226732521e+00 1.1022784937241948e+01 8.1692913587307103e+00 1 0 0
774 2 4.7892134925129550e+00 1.0765889686751201e+01 5.2009294808359972e+00 0 0 0
772 1 5.6463106429253056e+00 1.0276560711691040e+01 5.2146937202387065e+00 0 0 0
752 2 7.0779566958717455e+00 1.1091495790792701e+01 5.4806169791652524e+00 -1 0 0
751 1 7.9316636955034623e+00 1.1631571150412121e+01 5.5839915567085860e+00 -1 0 0
753 2 7.7471744511584104e+00 1.2121618196874646e+01 6.3765244472508158e+00 0 0 0
361 1 6.7856094356283254e+00 1.2977709798856273e+01 8.1094301393899393e+00 0 0 0
362 2 6.3724795841789126e+00 1.2077632671385329e+01 8.2947109563656305e+00 0 0 0
196 1 5.1152966323997147e+00 1.0602023296709799e+01 8.6554596557937753e+00 0 0 0
25 1 5.0380688684812638e+00 1.4162363858641509e+01 4.6916244711963371e+00 0 0 0
27 2 5.6681063172418149e+00 1.4222133439571428e+01 5.4358498947152381e+00 0 0 0
363 2 7.5055580334880672e+00 1.3123786146217373e+01 8.7369914066722973e+00 0 0 0
128 2 1.0009246865867922e+01 1.1329272446743257e+01 4.6298121343161425e+00 0 0 0
129 2 1.1378702738732819e+01 1.1260644600035420e+01 5.3050820783214423e+00 0 0 0
857 2 9.0533333275821519e+00 1.0070283343539803e+01 6.3148181986144438e+00 0 0 0
499 1 1.1952874942245284e+01 1.0087986120734678e+01 6.9780064242665629e+00 0 0 0
500 2 1.2230450205216574e+01 1.0727475778204498e+01 7.6588652252807838e+00 0 0 0
288 2 1.2008961913603590e+01 1.3714703952476748e+01 7.8049557317962641e+00 -1 0 0
286 1 1.2100861229951427e+01 1.4433450224903080e+01 7.1125710096571062e+00 -1 0 0
287 2 1.3051224066188979e+01 1.4247686462497755e+01 6.8767343646629406e+00 -1 0 0
615 2 1.6900767927924299e+01 1.1572265735842157e+01 4.8163164227326130e+00 -1 0 0
227 2 1.7438877658216708e+01 1.0406361778603861e+01 7.5566871132085787e+00 0 0 0
443 2 1.6045103038097462e+01 1.3076485737520750e+01 6.6381971484721030e+00 -1 0 0
442 1 1.5950609755261047e+01 1.2433260502495765e+01 5.8926009914639534e+00 -1 0 0
444 2 1.5197673938499008e+01 1.2828519513032132e+01 5.4126841486797934e+00 -1 0 0
146 2 1.5638392186729146e+01 1.0597694162782091e+01 6.5236977874684046e+00 0 0 0
145 1 1.5053719603564675e+01 1.0255158736552840e+01 7.2570759484607130e+00 0 0 0
850 1 1.4096073791720386e+01 1.4197492779134240e+01 4.8384659840653867e+00 0 0 1
7 1 1.6171215107770564e+01 1.4471936653864798e+01 7.7593174066677362e+00 0 0 0
769 1 1.6288556176110862e+00 1.4844535399749347e+01 7.8600174831295542e+00 1 0 0
770 2 2.1355389019253561e+00 1.5671934762401341e+01 8.0877002290500144e+00 1 0 0
409 1 1.2317318481523096e+00 1.7322525770024694e+01 5.7279267901675928e+00 0 0 0
411 2 1.0135568457963469e+00 1.7820509608266768e+01 6.5400445852818159e+00 0 0 0
410 2 2.1073062139549932e+00 1.7030921342543181e+01 5.8463648473206247e+00 0 0 0
212 2 3.1949809297654705e+00 1.7967323477228721e+01 8.2687297052139463e+00 1 -1 0
211 1 2.6453181168784803e+00 1.7201328356481365e+01 8.5380852025864069e+00 1 0 0
597 2 7.4891883303455433e+00 1.5697059440708637e+01 6.6748276244969054e+00 0 0 1
596 2 8.2677722217622041e+00 1.5320511925737108e+01 5.4669649685142643e+00 0 0 1
641 2 5.9045998688940378e+00 1.4627056528864829e+01 8.4366208752715917e+00 0 0 0
595 1 7.4332281873206094e+00 1.5548272935205837e+01 5.7169499408860274e+00 0 0 1
825 2 7.6975927308401211e+00 1.8412432369262458e+01 6.4285570276687274e+00 0 0 0
824 2 7.7773140934410776e+00 1.7621766503195595e+01 5.0643925275106243e+00 0 0 0
823 1 8.1042756027851208e+00 1.8424872758995463e+01 5.5090224110749411e+00 0 0 0
550 1 7.1084394171070198e+00 1.8522953452505103e+01 7.8262125295968428e+00 0 -1 0
642 2 5.1952615902372985e+00 1.5818278043114113e+01 7.7606616637724652e+00 1 0 0
640 1 5.8571950687674574e+00 1.5646027986459059e+01 8.4302064349406987e+00 0 0 0
552 2 6.1389602359841611e+00 1.8330099160950024e+01 7.9597067668478605e+00 0 -1 0
551 2 7.5738457110254620e+00 1.8596127473516862e+01 8.6871688427656615e+00 0 -1 0
156 2 1.0807371736692035e+01 1.4916209240432844e+01 5.6029399067762302e+00 0 0 0
154 1 1.0043460392626672e+01 1.5217245840615190e+01 5.1381841327065318e+00 0 0 0
612 2 1.0240742994579202e+01 1.7337604382476471e+01 5.5185013700657741e+00 0 0 0
611 2 1.1779292647534110e+01 1.7662686221631816e+01 5.4050865202528611e+00 0 0 0
610 1 1.0922163861733718e+01 1.8024984889513821e+01 5.7481177605534626e+00 0 0 0
20 2 1.1500437318905112e+01 1.7339376710500449e+01 7.7342139559907324e+00 0 0 0
19 1 1.2274812016868633e+01 1.6967902499532943e+01 8.2031604041208972e+00 0 0 0
21 2 1.2247821488739778e+01 1.6031383624542627e+01 7.8659127527972439e+00 0 0 0
496 1 1.3139277600816557e+01 1.6990714537003367e+01 4.8608307217123876e+00 0 0 1
200 2 1.7421616109487285e+01 1.6191067687836515e+01 4.7799697529376788e+00 -1 0 0
9 2 1.5752881380297941e+01 1.5309833601567624e+01 7.6896327936591886e+00 0 0 1
8 2 1.7175613821987362e+01 1.4675227412658757e+01 7.7633861344753141e+00 -1 0 0
498 2 1.3206563572756114e+01 1.6062219915632635e+01 4.7634716060057789e+00 -1 0 1
47 2 1.3915536516456124e+01 1.7360041974657676e+01 7.8893002306880033e+00 0 0 0
48 2 1.5309364337841821e+01 1.7612586909374730e+01 7.1524652627366319e+00 0 0 0
46 1 1.4842256719717204e+01 1.7355274197074685e+01 7.9472047372201970e+00 0 0 0
357 2 5.6602073875713299e-01 2.0216854129837692e+01 7.3406846056437027e+00 0 -1 0
73 1 3.8256208992709881e+00 1.9367052077019419e+01 7.7824999308216318e+00 0 0 0
74 2 4.1088623869905838e+00 1.9495076127752675e+01 6.8655470933922285e+00 0 0 0
358 1 4.5336858673277680e+00 1.9480814170794016e+01 4.8219112966979720e+00 -1 0 0
75 2 4.2349051314193975e+00 2.0159561447029134e+01 8.2802898993518621e+00 0 0 0
653 2 1.7102071821384128e+00 2.3176219663440115e+01 5.8419863919448982e+00 0 -1 0
652 1 2.3956217575160683e+00 2.3852249651426327e+01 5.6786446833440651e+00 0 0 0
794 2 3.9912964626945300e+00 2.2592800123479318e+01 5.6872540278077697e+00 0 -1 0
580 1 6.0491319271993338e-01 2.2355782153319069e+01 6.2534796134838420e+00 0 0 0
833 2 5.9655949255326677e+00 2.3887257313951025e+01 6.0648766826277027e+00 0 -1 0
424 1 8.5866411623240637e+00 2.3521785735506047e+01 8.7636103203558910e+00 0 0 0
795 2 4.8163665103477618e+00 2.1419555905275327e+01 5.1713217545013537e+00 0 -1 0
793 1 4.8845367921211800e+00 2.2223839590826476e+01 5.7503031104061195e+00 0 -1 0
512 2 6.7513141696994863e+00 2.1522101356012730e+01 6.6033300498485019e+00 0 0 0
511 1 7.4306020456593114e+00 2.1243694025837129e+01 7.2487439376313043e+00 0 0 0
513 2 7.1300901935138654e+00 2.0488795413379826e+01 7.7411681075281660e+00 0 0 0
426 2 7.8541844665606266e+00 2.3065555157106211e+01 8.4292781846761642e+00 0 0 0
842 2 8.9185228836351644e+00 2.2763430352713129e+01 4.7574547179388320e+00 0 0 0
841 1 9.0418643407886581e+00 2.3639587966320164e+01 5.0224091332339578e+00 0 0 0
843 2 9.7027799470449221e+00 2.3675351596830051e+01 5.7323425008400974e+00 0 0 0
759 2 9.4740580372147605e+00 2.0226681442421587e+01 7.5729603514247099e+00 -1 -1 0
758 2 1.0508138574305757e+01 1.9318505429871873e+01 6.8435598730130547e+00 -1 0 0
757 1 1.0449304051221947e+01 2.0054890273422039e+01 7.4693815632291667e+00 -1 0 0
730 1 1.1815922544753359e+01 2.2151911721464643e+01 7.0971739420338338e+00 0 0 1
732 2 1.1162717322212142e+01 2.1475083381833681e+01 7.1508052609900679e+00 0 0 1
204 2 1.1176144828171925e+01 2.3816221407214517e+01 7.0441995063023981e+00 -1 0 0
731 2 1.2612819866971419e+01 2.1655773892685712e+01 7.5049365907566514e+00 0 0 1
90 2 1.2003785045537809e+01 2.2418182229966003e+01 5.3414444796346823e+00 0 -1 0
355 1 1.7440499388570704e+01 1.9356647901172561e+01 7.0300458076612555e+00 -1 -1 0
356 2 1.7276364371865874e+01 1.9519973651754210e+01 6.0702978670230614e+00 -1 -1 0
785 2 1.3944630898334982e+01 2.0122780689796606e+01 7.9366059921557213e+00 0 0 1
581 2 1.7098764650585753e+01 2.2609312826382528e+01 6.9074338693786190e+00 -1 0 0
582 2 1.7353269037796011e+01 2.1970721617637714e+01 5.4724696299561373e+00 -1 0 0
784 1 1.3855912848125946e+01 2.1012650046215441e+01 8.3459591846827266e+00 0 0 1
316 1 1.6384958734143407e+01 2.2244238301663664e+01 8.5608793792627118e+00 -1 -1 0
318 2 1.5573929944271372e+01 2.1640925868182883e+01 8.6486842022242438e+00 -1 -1 0
317 2 1.7171980057966955e+01 2.1801001505530309e+01 8.8333237071097557e+00 -1 0 0
523 1 2.7232620808966956e-01 4.2280601056109557e+00 1.2998577897470630e+01 0 0 0
524 2 1.1073318892187753e+00 4.6098774675805112e+00 1.2752944996027704e+01 1 0 0
389 2 3.3225177702328179e+00 4.8228818242402802e+00 1.2195135504344780e+01 0 0 0
844 1 4.2535872674505022e+00 3.5174387098399067e+00 1.3029169115768250e+01 1 0 0
745 1 3.1408504274091070e-01 5.2911390754393473e-01 1.3177006654056280e+01 1 1 0
845 2 4.5869888769583733e+00 2.9639603176115599e+00 1.2284926836160979e+01 1 0 0
206 2 5.2586390652128685e+00 1.3830431884049437e+00 1.0623912851066089e+01 1 1 0
205 1 5.7379108553199325e+00 1.8050370802142175e+00 1.1336098560868225e+01 1 1 0
650 2 7.3598367454834390e+00 2.5630048576436377e+00 1.0337669745368309e+01 1 0 0