1c.data (written by ASE) 

288 	 atoms 
2  atom types
0.0      12.763642000000001  xlo xhi
0.0      12.763642000000001  ylo yhi
0.0               19.145464  zlo zhi

Masses

1 15.9994
2 1.00794

Atoms 

1 1 0 0 0.070000000000000007
2 2 12.223642000000002 0.54000000000000004 18.625464000000001
3 2 0.54000000000000004 12.223642000000002 18.625464000000001
4 1 3.1299999999999994 3.1899999999999999 0
5 2 3.71 2.6600000000000001 18.605464000000001
6 2 3.71 3.73 0.54000000000000004
7 1 3.1899999999999999 0 3.2599999999999998
8 2 3.73 12.223642000000002 2.6699999999999999
9 2 2.6600000000000001 0.54000000000000004 2.6699999999999999
10 1 12.693642000000001 3.1899999999999999 3.1899999999999999
11 2 0.52000000000000002 2.6600000000000001 2.6600000000000006
12 2 0.52000000000000002 3.73 3.73
13 1 1.5999999999999999 1.5999999999999999 1.6599999999999999
14 2 2.1299999999999999 2.1299999999999999 1.0700000000000001
15 2 1.0600000000000001 1.0600000000000001 1.0700000000000001
16 1 4.79 4.7199999999999989 1.6000000000000003
17 2 5.3200000000000003 5.3099999999999996 1.0600000000000001
18 2 4.25 5.3099999999999996 2.1299999999999999
19 1 4.79 1.5999999999999999 4.8499999999999996
20 2 4.25 1.0600000000000001 4.2699999999999996
21 2 5.3200000000000003 2.1299999999999999 4.2699999999999996
22 1 1.5999999999999999 4.79 4.7199999999999998
23 2 2.1299999999999999 4.25 5.3099999999999996
24 2 1.0600000000000001 5.3200000000000003 5.3099999999999996
25 1 6.3200000000000003 0 0
26 2 6.8999999999999995 0.54000000000000004 0.54000000000000004
27 2 6.8999999999999995 12.223642000000002 18.605464000000001
28 1 9.5699999999999985 3.1899999999999999 19.075464
29 2 10.110000999999999 3.73 0.52000000000000002
30 2 9.0399999999999991 2.6600000000000001 0.52000000000000002
31 1 9.5699999999999985 0 3.1299999999999999
32 2 9.0399999999999991 12.223642000000002 3.7100000000000004
33 2 10.110000999999999 0.54000000000000004 3.7100000000000004
34 1 6.3799999999999999 3.1299999999999994 3.1899999999999999
35 2 6.9199999999999999 3.71 3.73
36 2 5.8499999999999996 3.71 2.6600000000000006
37 1 7.9800000000000004 1.5999999999999999 1.5300000000000002
38 2 7.4400000000000004 2.1299999999999999 2.1200000000000001
39 2 8.5099999999999998 1.0600000000000001 2.1200000000000001
40 1 11.17 4.79 1.5300000000000002
41 2 10.629999 5.3200000000000003 2.1200000000000001
42 2 11.699999999999999 4.25 2.1200000000000001
43 1 11.1 1.5999999999999999 4.79
44 2 11.690001000000001 2.1299999999999999 4.25
45 2 11.690001000000001 1.0600000000000001 5.3200000000000012
46 1 7.9100000000000001 4.79 4.79
47 2 8.5 5.3200000000000003 4.25
48 2 8.5 4.25 5.3200000000000012
49 1 0 6.4499999999999993 0
50 2 12.223642000000002 5.8600000000000003 0.54000000000000004
51 2 0.54000000000000004 5.8600000000000003 18.605464000000001
52 1 3.1899999999999999 9.6399989999999995 0
53 2 2.6600000000000001 9.0499989999999997 0.54000000000000004
54 2 3.73 9.0499989999999997 18.605464000000001
55 1 3.1899999999999999 6.3799999999999999 3.1299999999999999
56 2 2.6600000000000001 5.8499999999999996 3.7100000000000004
57 2 3.73 6.9199999999999999 3.7100000000000004
58 1 0 9.5699999999999985 3.2599999999999998
59 2 0.54000000000000004 9.0399999999999991 2.6699999999999999
60 2 12.223642000000002 10.110000999999999 2.6699999999999999
61 1 1.5999999999999999 8.0399999999999974 1.6000000000000003
62 2 1.0600000000000001 7.46 1.0600000000000001
63 2 2.1299999999999999 7.46 2.1299999999999999
64 1 4.79 11.17 1.6599999999999999
65 2 5.3200000000000003 11.699999999999999 1.0700000000000001
66 2 4.25 10.629999 1.0700000000000001
67 1 4.79 7.9800000000000004 4.7199999999999998
68 2 4.25 8.5099999999999998 5.3099999999999996
69 2 5.3200000000000003 7.4400000000000004 5.3099999999999996
70 1 1.5999999999999999 11.17 4.8499999999999996
71 2 1.0600000000000001 10.629999 4.2699999999999996
72 2 2.1299999999999999 11.699999999999999 4.2699999999999996
73 1 6.3200000000000003 6.3799999999999999 0
74 2 6.8999999999999995 5.8499999999999996 18.605464000000001
75 2 6.8999999999999995 6.9199999999999999 0.54000000000000004
76 1 9.509999999999998 9.5699999999999985 0
77 2 10.089999000000001 10.110000999999999 0.54000000000000004
78 2 10.089999000000001 9.0399999999999991 18.605464000000001
79 1 9.5699999999999985 6.3200000000000003 3.1899999999999999
80 2 9.0399999999999991 6.8999999999999995 2.6600000000000006
81 2 10.110000999999999 6.8999999999999995 3.73
82 1 6.4499999999999993 9.5699999999999985 3.1899999999999999
83 2 5.8600000000000003 10.110000999999999 2.6600000000000006
84 2 5.8600000000000003 9.0399999999999991 3.73
85 1 7.9800000000000004 7.9100000000000001 1.6000000000000003
86 2 7.4400000000000004 8.5 2.1299999999999999
87 2 8.5099999999999998 8.5 1.0600000000000001
88 1 11.17 11.1 1.6000000000000003
89 2 11.699999999999999 11.690001000000001 1.0600000000000001
90 2 10.629999 11.690001000000001 2.1299999999999999
91 1 11.17 7.9100000000000001 4.79
92 2 11.699999999999999 8.5 4.25
93 2 10.629999 8.5 5.3200000000000012
94 1 8.0399999999999974 11.17 4.79
95 2 7.46 11.699999999999999 5.3200000000000012
96 2 7.46 10.629999 4.25
97 1 0 0.070000000000000007 6.3799999999999999
98 2 12.223642000000002 12.243641999999999 6.9199999999999999
99 2 0.54000000000000004 12.243641999999999 5.8499999999999996
100 1 3.1899999999999999 3.2599999999999998 6.3799999999999999
101 2 2.6600000000000001 2.6699999999999999 6.9199999999999999
102 2 3.73 2.6699999999999999 5.8499999999999996
103 1 3.2599999999999998 0 9.5700000000000003
104 2 2.6699999999999999 0.54000000000000004 9.0399999999999991
105 2 2.6699999999999999 12.223642000000002 10.110001
106 1 0.070000000000000007 3.1899999999999999 9.5700000000000003
107 2 12.243641999999999 2.6600000000000001 10.110001
108 2 12.243641999999999 3.73 9.0399999999999991
109 1 1.6599999999999999 1.5999999999999999 7.9800000000000004
110 2 1.0700000000000001 2.1299999999999999 8.5099999999999998
111 2 1.0700000000000001 1.0600000000000001 7.4400000000000004
112 1 4.79 4.8499999999999996 7.9800000000000004
113 2 4.25 4.2699999999999996 7.4400000000000004
114 2 5.3200000000000003 4.2699999999999996 8.5099999999999998
115 1 4.8499999999999996 1.5999999999999999 11.17
116 2 4.2699999999999996 1.0600000000000001 10.629999000000002
117 2 4.2699999999999996 2.1299999999999999 11.699999999999999
118 1 1.5999999999999999 4.79 11.23
119 2 1.0600000000000001 4.25 10.650001000000001
120 2 2.1299999999999999 5.3200000000000003 10.650001000000001
121 1 6.4499999999999993 0 6.3799999999999999
122 2 5.8600000000000003 0.54000000000000004 5.8499999999999996
123 2 5.8600000000000003 12.223642000000002 6.9199999999999999
124 1 9.509999999999998 3.1899999999999999 6.3799999999999999
125 2 10.089999000000001 2.6600000000000001 5.8499999999999996
126 2 10.089999000000001 3.73 6.9199999999999999
127 1 9.6399989999999995 0 9.5700000000000003
128 2 9.0499989999999997 0.54000000000000004 9.0399999999999991
129 2 9.0499989999999997 12.223642000000002 10.110001
130 1 6.3799999999999999 3.2599999999999998 9.5700000000000003
131 2 6.9199999999999999 2.6699999999999999 9.0399999999999991
132 2 5.8499999999999996 2.6699999999999999 10.110001
133 1 7.9800000000000004 1.5999999999999999 8.0399999999999991
134 2 8.5099999999999998 2.1299999999999999 7.46
135 2 7.4400000000000004 1.0600000000000001 7.46
136 1 11.17 4.7199999999999989 7.9800000000000004
137 2 10.629999 5.3099999999999996 8.5099999999999998
138 2 11.699999999999999 5.3099999999999996 7.4400000000000004
139 1 11.23 1.5999999999999999 11.17
140 2 10.650001 2.1299999999999999 11.699999999999999
141 2 10.650001 1.0600000000000001 10.629999000000002
142 1 7.9800000000000004 4.79 11.23
143 2 7.4400000000000004 4.25 10.650001000000001
144 2 8.5099999999999998 5.3200000000000003 10.650001000000001
145 1 0 6.3200000000000003 6.3799999999999999
146 2 0.54000000000000004 6.8999999999999995 6.9199999999999999
147 2 12.223642000000002 6.8999999999999995 5.8499999999999996
148 1 3.2599999999999998 9.5699999999999985 6.3799999999999999
149 2 2.6699999999999999 9.0399999999999991 6.9199999999999999
150 2 2.6699999999999999 10.110000999999999 5.8499999999999996
151 1 3.1299999999999994 6.3799999999999999 9.5700000000000003
152 2 3.71 6.9199999999999999 10.110001
153 2 3.71 5.8499999999999996 9.0399999999999991
154 1 0 9.509999999999998 9.5700000000000003
155 2 12.223642000000002 10.089999000000001 9.0399999999999991
156 2 0.54000000000000004 10.089999000000001 10.110001
157 1 1.5999999999999999 7.9800000000000004 7.9100000000000001
158 2 1.0600000000000001 8.5099999999999998 8.5
159 2 2.1299999999999999 7.4400000000000004 8.5
160 1 4.8499999999999996 11.17 7.9800000000000004
161 2 4.2699999999999996 10.629999 7.4400000000000004
162 2 4.2699999999999996 11.699999999999999 8.5099999999999998
163 1 4.7199999999999989 7.9800000000000004 11.17
164 2 5.3099999999999996 8.5099999999999998 10.629999000000002
165 2 5.3099999999999996 7.4400000000000004 11.699999999999999
166 1 1.5999999999999999 11.17 11.1
167 2 1.0600000000000001 11.699999999999999 11.690001000000001
168 2 2.1299999999999999 10.629999 11.690001000000001
169 1 6.3799999999999999 6.4499999999999993 6.3799999999999999
170 2 5.8499999999999996 5.8600000000000003 6.9199999999999999
171 2 6.9199999999999999 5.8600000000000003 5.8499999999999996
172 1 9.6399989999999995 9.5699999999999985 6.3799999999999999
173 2 9.0499989999999997 9.0399999999999991 6.9199999999999999
174 2 9.0499989999999997 10.110000999999999 5.8499999999999996
175 1 9.5699999999999985 6.3200000000000003 9.5700000000000003
176 2 10.110000999999999 6.8999999999999995 10.110001
177 2 9.0399999999999991 6.8999999999999995 9.0399999999999991
178 1 6.3799999999999999 9.509999999999998 9.5700000000000003
179 2 5.8499999999999996 10.089999000000001 9.0399999999999991
180 2 6.9199999999999999 10.089999000000001 10.110001
181 1 8.0399999999999974 7.9800000000000004 7.9800000000000004
182 2 7.46 8.5099999999999998 8.5099999999999998
183 2 7.46 7.4400000000000004 7.4400000000000004
184 1 11.23 11.17 7.9800000000000004
185 2 10.650001 10.629999 7.4400000000000004
186 2 10.650001 11.699999999999999 8.5099999999999998
187 1 11.1 7.9800000000000004 11.17
188 2 11.690001000000001 8.5099999999999998 10.629999000000002
189 2 11.690001000000001 7.4400000000000004 11.699999999999999
190 1 7.9800000000000004 11.17 11.1
191 2 8.5099999999999998 10.629999 11.690001000000001
192 2 7.4400000000000004 11.699999999999999 11.690001000000001
193 1 0.070000000000000007 0 12.76
194 2 12.243641999999999 0.54000000000000004 12.230000000000002
195 2 12.243641999999999 12.223642000000002 13.300000000000001
196 1 3.1899999999999999 3.1299999999999994 12.76
197 2 2.6600000000000001 3.71 12.230000000000002
198 2 3.73 3.71 13.300000000000001
199 1 3.1899999999999999 0 16.02
200 2 2.6600000000000001 0.54000000000000004 15.43
201 2 3.73 12.223642000000002 15.43
202 1 0 3.1899999999999999 16.02
203 2 0.54000000000000004 2.6600000000000001 15.43
204 2 12.223642000000002 3.73 15.43
205 1 1.5999999999999999 1.5999999999999999 14.42
206 2 1.0600000000000001 1.0600000000000001 13.839999000000001
207 2 2.1299999999999999 2.1299999999999999 13.839999000000001
208 1 4.79 4.79 14.289999999999999
209 2 5.3200000000000003 4.25 14.880000000000001
210 2 4.25 5.3200000000000003 14.880000000000001
211 1 4.79 1.6599999999999999 17.549999
212 2 4.25 1.0700000000000001 17.010000000000002
213 2 5.3200000000000003 1.0700000000000001 18.09
214 1 1.5999999999999999 4.8499999999999996 17.549999
215 2 1.0600000000000001 4.2699999999999996 17.010000000000002
216 2 2.1299999999999999 4.2699999999999996 18.09
217 1 6.3799999999999999 12.693642000000001 12.76
218 2 5.8499999999999996 0.52000000000000002 12.230000000000002
219 2 6.9199999999999999 0.52000000000000002 13.300000000000001
220 1 9.6399989999999995 3.1899999999999999 12.76
221 2 9.0499989999999997 3.73 12.230000000000002
222 2 9.0499989999999997 2.6600000000000001 13.300000000000001
223 1 9.5699999999999985 0 15.889999000000001
224 2 10.110000999999999 0.54000000000000004 16.48
225 2 9.0399999999999991 12.223642000000002 16.48
226 1 6.3799999999999999 3.1899999999999999 15.889999000000001
227 2 5.8499999999999996 2.6600000000000001 16.48
228 2 6.9199999999999999 3.73 16.48
229 1 7.9800000000000004 1.5999999999999999 14.289999999999999
230 2 8.5099999999999998 1.0600000000000001 14.880000000000001
231 2 7.4400000000000004 2.1299999999999999 14.880000000000001
232 1 11.17 4.79 14.42
233 2 11.699999999999999 5.3200000000000003 13.839999000000001
234 2 10.629999 4.25 13.839999000000001
235 1 11.17 1.5299999999999998 17.549999
236 2 11.699999999999999 2.1200000000000001 17.010000000000002
237 2 10.629999 2.1200000000000001 18.09
238 1 7.9100000000000001 4.79 17.549999
239 2 8.5 4.25 18.09
240 2 8.5 5.3200000000000003 17.010000000000002
241 1 12.693642000000001 6.3799999999999999 12.76
242 2 0.52000000000000002 5.8499999999999996 12.230000000000002
243 2 0.52000000000000002 6.9199999999999999 13.300000000000001
244 1 3.1899999999999999 9.6399989999999995 12.76
245 2 2.6600000000000001 9.0499989999999997 13.300000000000001
246 2 3.73 9.0499989999999997 12.230000000000002
247 1 3.1899999999999999 6.3799999999999999 15.889999000000001
248 2 3.73 6.9199999999999999 16.48
249 2 2.6600000000000001 5.8499999999999996 16.48
250 1 0 9.509999999999998 15.950001
251 2 12.223642000000002 10.089999000000001 15.420000000000002
252 2 0.54000000000000004 10.089999000000001 16.489999999999998
253 1 1.5999999999999999 7.9800000000000004 14.289999999999999
254 2 2.1299999999999999 7.4400000000000004 14.880000000000001
255 2 1.0600000000000001 8.5099999999999998 14.880000000000001
256 1 4.79 11.17 14.42
257 2 5.3200000000000003 11.699999999999999 13.839999000000001
258 2 4.25 10.629999 13.839999000000001
259 1 4.7199999999999989 7.9800000000000004 17.549999
260 2 5.3099999999999996 8.5099999999999998 17.010000000000002
261 2 5.3099999999999996 7.4400000000000004 18.09
262 1 1.5299999999999998 11.17 17.549999
263 2 2.1200000000000001 11.699999999999999 17.010000000000002
264 2 2.1200000000000001 10.629999 18.09
265 1 6.3799999999999999 6.4499999999999993 12.76
266 2 6.9199999999999999 5.8600000000000003 12.230000000000002
267 2 5.8499999999999996 5.8600000000000003 13.300000000000001
268 1 9.5699999999999985 9.6399989999999995 12.76
269 2 9.0399999999999991 9.0499989999999997 13.300000000000001
270 2 10.110000999999999 9.0499989999999997 12.230000000000002
271 1 9.509999999999998 6.3799999999999999 15.950001
272 2 10.089999000000001 6.9199999999999999 16.489999999999998
273 2 10.089999000000001 5.8499999999999996 15.420000000000002
274 1 6.3799999999999999 9.5699999999999985 16.02
275 2 6.9199999999999999 9.0399999999999991 15.43
276 2 5.8499999999999996 10.110000999999999 15.43
277 1 7.9800000000000004 8.0399999999999974 14.359999999999999
278 2 7.4400000000000004 7.46 13.820000000000002
279 2 8.5099999999999998 7.46 14.889999000000001
280 1 11.23 11.17 14.359999999999999
281 2 10.650001 10.629999 13.820000000000002
282 2 10.650001 11.699999999999999 14.889999000000001
283 1 11.1 7.9800000000000004 17.549999
284 2 11.690001000000001 7.4400000000000004 18.09
285 2 11.690001000000001 8.5099999999999998 17.010000000000002
286 1 7.9800000000000004 11.23 17.549999
287 2 7.4400000000000004 10.650001 17.010000000000002
288 2 8.5099999999999998 10.650001 18.09
