1h.data (written by ASE) 

1296 	 atoms 
2  atom types
0.0               23.468515  xlo xhi
0.0      22.060718999999999  ylo yhi
0.0      27.109556000000001  zlo zhi


Atoms 

1 1 1.3500000000000001 1.8300000000000001 3.4100000000000001
2 2 0.46000000000000002 1.49 3.3900000000000001
3 2 1.7699999999999998 1.49 2.6200000000000001
4 1 5.2199999999999998 4.5499999999999998 1.0600000000000001
5 2 5.6799999999999997 4.8300000000000001 1.8500000000000001
6 2 5.2400000000000002 3.5900000000000003 1.1000000000000001
7 1 6.5099999999999989 5.3899999999999997 3.3500000000000001
8 2 6.5299999999999994 6.3400000000000007 3.3599999999999994
9 2 7.4299999999999997 5.1200000000000001 3.3599999999999994
10 1 5.2199999999999998 4.5700000000000003 5.6599999999999993
11 2 5.6799999999999997 4.8399999999999999 4.8599999999999994
12 2 5.2400000000000002 3.6099999999999999 5.6200000000000001
13 1 2.6699999999999999 0.83999999999999997 5.6299999999999999
14 2 2.1899999999999999 1.1799999999999999 6.3799999999999999
15 2 2.1899999999999999 1.1799999999999999 4.8699999999999992
16 1 2.6299999999999999 5.5099999999999998 5.6499999999999995
17 2 2.21 5.1699999999999999 4.8599999999999994
18 2 3.5200000000000005 5.160000000000001 5.6200000000000001
19 1 5.25 1.79 1.0700000000000001
20 2 4.3499999999999996 1.4600000000000002 1.1100000000000001
21 2 5.6600000000000001 1.4500000000000002 1.8600000000000001
22 1 5.25 1.8100000000000003 5.5800000000000001
23 2 4.3499999999999996 1.48 5.6100000000000003
24 2 5.6600000000000001 1.47 6.3700000000000001
25 1 1.3799999999999999 4.54 7.9099999999999993
26 2 0.47999999999999998 4.8600000000000003 7.8699999999999992
27 2 1.79 4.8700000000000001 7.1100000000000003
28 1 1.3999999999999999 4.5899999999999999 3.3599999999999994
29 2 0.48999999999999994 4.8700000000000001 3.3599999999999994
30 2 1.3700000000000001 3.6400000000000001 3.3599999999999994
31 1 2.6299999999999999 5.4900000000000002 1.0600000000000001
32 2 2.21 5.160000000000001 1.8500000000000001
33 2 3.5200000000000005 5.1399999999999997 1.0899999999999999
34 1 2.6400000000000001 0.89000000000000001 1.1699999999999999
35 2 2.1899999999999999 1.1799999999999999 0.37
36 2 2.6299999999999999 22.000719 1.1200000000000001
37 1 6.54 0.87 3.3299999999999996
38 2 6.5299999999999994 21.970718999999999 3.3700000000000001
39 2 6.0899999999999999 1.1399999999999999 4.1200000000000001
40 1 6.4899999999999993 0.81000000000000005 7.8299999999999992
41 2 6.0699999999999994 1.1399999999999999 8.6300000000000008
42 2 7.3799999999999999 1.1599999999999999 7.8599999999999994
43 1 6.6100000000000003 5.4800000000000004 7.8599999999999994
44 2 6.1399999999999997 5.1399999999999997 8.6199999999999974
45 2 6.129999999999999 5.1399999999999997 7.0999999999999996
46 1 1.3799999999999999 1.78 7.8699999999999992
47 2 0.46000000000000002 1.5000000000000002 7.8699999999999992
48 2 1.3300000000000001 2.7300000000000004 7.8699999999999992
49 1 9.1699999999999999 1.8300000000000001 3.3199999999999998
50 2 8.2799999999999994 1.49 3.3599999999999994
51 2 9.5899999999999999 1.5000000000000002 4.1200000000000001
52 1 13.099999 4.4699999999999998 1.1499999999999999
53 2 12.209999 4.8200000000000003 1.1200000000000001
54 2 13.519999999999998 4.8099999999999996 0.35999999999999999
55 1 14.349999 5.4600000000000009 3.3999999999999999
56 2 13.940001000000001 5.1200000000000001 2.6099999999999999
57 2 15.249999999999998 5.1399999999999997 3.3599999999999994
58 1 13.049999000000001 4.5700000000000003 5.6599999999999993
59 2 13.509998999999999 4.8399999999999999 4.8599999999999994
60 2 13.059998999999999 3.6099999999999999 5.6200000000000001
61 1 10.41 0.83999999999999997 5.5800000000000001
62 2 10 1.1799999999999999 6.3700000000000001
63 2 11.31 1.1700000000000002 5.6100000000000003
64 1 10.43 5.4300000000000006 5.6100000000000003
65 2 10.470000000000001 6.3899999999999997 5.6100000000000003
66 2 11.339999000000001 5.160000000000001 5.6100000000000003
67 1 13.099999 1.7100000000000002 1.1200000000000001
68 2 13.070000999999998 2.6699999999999999 1.1100000000000001
69 2 12.18 1.4399999999999999 1.1200000000000001
70 1 12.99 1.8100000000000003 5.6200000000000001
71 2 13.470000000000001 1.4600000000000002 4.8699999999999992
72 2 13.470000000000001 1.47 6.3799999999999999
73 1 9.1999999999999993 4.54 7.9099999999999993
74 2 8.3000000000000007 4.8600000000000003 7.8699999999999992
75 2 9.6100010000000005 4.8700000000000001 7.1100000000000003
76 1 9.1500009999999996 4.5899999999999999 3.3100000000000001
77 2 9.6100010000000005 4.8700000000000001 4.0999999999999996
78 2 9.1600000000000001 3.6400000000000001 3.3500000000000001
79 1 10.51 5.410000000000001 1.0600000000000001
80 2 10.050000000000001 5.1300000000000008 1.8500000000000001
81 2 10.48 6.370000000000001 1.0899999999999999
82 1 10.49 0.81999999999999995 1.1200000000000001
83 2 10.02 1.1599999999999999 0.35999999999999999
84 2 10.02 1.1599999999999999 1.8799999999999999
85 1 14.359999999999998 0.87 3.4199999999999999
86 2 13.909999999999998 1.1499999999999999 2.6200000000000001
87 2 14.359999999999998 21.970718999999999 3.3799999999999999
88 1 14.309998999999998 0.81000000000000005 7.8299999999999992
89 2 13.9 1.1399999999999999 8.6300000000000008
90 2 15.199999999999999 1.1599999999999999 7.8599999999999994
91 1 14.409999999999998 5.410000000000001 7.8999999999999995
92 2 14.370001 6.3600000000000012 7.879999999999999
93 2 13.949999999999999 5.1300000000000008 7.1100000000000003
94 1 9.1199999999999992 1.78 7.8299999999999992
95 2 9.5700000000000003 1.49 8.6199999999999974
96 2 9.1500009999999996 2.7300000000000004 7.8599999999999994
97 1 17 1.8300000000000001 3.3199999999999998
98 2 17.41 1.5000000000000002 4.1200000000000001
99 2 16.100000000000001 1.49 3.3599999999999994
100 1 20.869999 4.5499999999999998 1.1499999999999999
101 2 21.329998 4.8200000000000003 0.35999999999999999
102 2 20.880001 3.5900000000000003 1.1200000000000001
103 1 22.229999999999997 5.3899999999999997 3.3999999999999999
104 2 21.77 5.1100000000000003 2.6099999999999999
105 2 22.200001 6.3400000000000007 3.3700000000000001
106 1 20.869999 4.5700000000000003 5.6599999999999993
107 2 21.329998 4.8399999999999999 4.8599999999999994
108 2 20.880001 3.6099999999999999 5.6200000000000001
109 1 18.290001 0.91000000000000003 5.5800000000000001
110 2 18.279999 22.020719 5.6200000000000001
111 2 17.829999999999998 1.1900000000000002 6.3700000000000001
112 1 18.25 5.4300000000000006 5.6100000000000003
113 2 19.170000000000002 5.160000000000001 5.6100000000000003
114 2 18.290001 6.3899999999999997 5.6100000000000003
115 1 20.899999999999999 1.79 1.0700000000000001
116 2 20 1.4600000000000002 1.1100000000000001
117 2 21.310001 1.4500000000000002 1.8600000000000001
118 1 20.899999999999999 1.8100000000000003 5.5800000000000001
119 2 21.310001 1.47 6.3700000000000001
120 2 20 1.48 5.6100000000000003
121 1 17.02 4.54 7.9099999999999993
122 2 17.439999 4.8700000000000001 7.1100000000000003
123 2 16.119999 4.8600000000000003 7.8699999999999992
124 1 16.970001 4.5899999999999999 3.3100000000000001
125 2 16.98 3.6400000000000001 3.3500000000000001
126 2 17.43 4.8700000000000001 4.0999999999999996
127 1 18.279999 5.4900000000000002 1.0600000000000001
128 2 19.170000000000002 5.1399999999999997 1.0899999999999999
129 2 17.860001 5.160000000000001 1.8500000000000001
130 1 18.309999000000001 0.81999999999999995 1.1200000000000001
131 2 17.84 1.1599999999999999 0.35999999999999999
132 2 17.84 1.1599999999999999 1.8799999999999999
133 1 22.190000999999999 0.87 3.3299999999999996
134 2 21.730001000000001 1.1399999999999999 4.1200000000000001
135 2 22.18 21.970718999999999 3.3700000000000001
136 1 22.190000999999999 0.88000000000000012 7.8299999999999992
137 2 21.730001000000001 1.1499999999999999 8.6300000000000008
138 2 22.18 21.990718999999999 7.8599999999999994
139 1 22.260000000000002 5.4800000000000004 7.8599999999999994
140 2 21.779999 5.1399999999999997 8.6199999999999974
141 2 21.779999 5.1399999999999997 7.0999999999999996
142 1 16.940000999999999 1.78 7.8299999999999992
143 2 17.389999 1.49 8.6199999999999974
144 2 16.970001 2.7300000000000004 7.8599999999999994
145 1 1.27 9.1900010000000023 3.3700000000000001
146 2 1.75 8.8399999999999999 2.6099999999999999
147 2 1.75 8.8499999999999996 4.1299999999999999
148 1 5.2800000000000002 11.83 1.0600000000000001
149 2 5.7000000000000002 12.16 1.8500000000000001
150 2 4.3799999999999999 12.17 1.0899999999999999
151 1 6.5099999999999989 12.740001000000001 3.3500000000000001
152 2 6.5299999999999994 13.699999999999999 3.3599999999999994
153 2 7.4299999999999997 12.480000000000002 3.3599999999999994
154 1 5.2800000000000002 11.84 5.6599999999999993
155 2 5.7000000000000002 12.17 4.8599999999999994
156 2 4.3799999999999999 12.19 5.6200000000000001
157 1 2.5600000000000001 8.2699999999999996 5.6299999999999999
158 2 2.6099999999999999 7.3100000000000005 5.6200000000000001
159 2 3.48 8.5500000000000007 5.6200000000000001
160 1 2.6899999999999999 12.790001 5.6499999999999995
161 2 2.6499999999999999 13.740000000000002 5.6200000000000001
162 2 2.2200000000000002 12.51 4.8599999999999994
163 1 5.2000000000000002 9.0700000000000003 1.1599999999999999
164 2 5.2199999999999998 10.02 1.1299999999999999
165 2 5.6500000000000004 8.7900000000000009 0.37
166 1 5.2000000000000002 9.0800000000000001 5.5800000000000001
167 2 5.2300000000000004 10.039999 5.6100000000000003
168 2 5.6500000000000004 8.8000000000000007 6.3700000000000001
169 1 1.3 11.890000000000001 7.8599999999999994
170 2 1.7799999999999998 12.220000000000001 8.6199999999999974
171 2 1.7799999999999998 12.220000000000001 7.1100000000000003
172 1 1.3999999999999999 11.950001000000002 3.3599999999999994
173 2 0.48999999999999994 12.220000000000001 3.3599999999999994
174 2 1.3700000000000001 10.990000000000002 3.3599999999999994
175 1 2.71 12.84 1.1000000000000001
176 2 2.23 12.51 1.8600000000000001
177 2 2.23 12.52 0.34000000000000002
178 1 2.5600000000000001 8.2500000000000018 1.1200000000000001
179 2 2.6099999999999999 7.29 1.1100000000000001
180 2 3.48 8.5299999999999994 1.1200000000000001
181 1 6.5700000000000003 8.1400000000000023 3.3700000000000001
182 2 6.0899999999999999 8.4900000000000002 4.1299999999999999
183 2 6.0899999999999999 8.4800000000000022 2.6099999999999999
184 1 6.54 8.2400000000000002 7.8299999999999992
185 2 6.0899999999999999 8.5099999999999998 8.6300000000000008
186 2 6.5299999999999994 7.2800000000000002 7.8599999999999994
187 1 6.5299999999999994 12.83 7.8999999999999995
188 2 6.1200000000000001 12.49 7.1100000000000003
189 2 7.4299999999999997 12.51 7.8599999999999994
190 1 1.3 9.1300000000000008 7.919999999999999
191 2 1.75 8.8399999999999999 7.1299999999999999
192 2 1.3300000000000001 10.089999000000001 7.879999999999999
193 1 9.1999999999999993 9.1100010000000005 3.3700000000000001
194 2 9.1600000000000001 10.07 3.3700000000000001
195 2 8.2799999999999994 8.8300000000000001 3.3700000000000001
196 1 13.019999999999998 11.83 1.1100000000000001
197 2 13.5 12.16 1.8600000000000001
198 2 13.5 12.16 0.34999999999999992
199 1 14.329999999999998 12.740001000000001 3.3500000000000001
200 2 15.249999999999998 12.480000000000002 3.3599999999999994
201 2 14.349999 13.699999999999999 3.3599999999999994
202 1 13.049999000000001 11.92 5.6599999999999993
203 2 13.059998999999999 10.959999 5.6200000000000001
204 2 13.509998999999999 12.19 4.8599999999999994
205 1 10.41 8.1900010000000005 5.6699999999999999
206 2 10 8.5299999999999994 4.8799999999999999
207 2 11.31 8.5200000000000014 5.6299999999999999
208 1 10.43 12.790001 5.6100000000000003
209 2 10.470000000000001 13.740000000000002 5.6100000000000003
210 2 11.339999000000001 12.51 5.6100000000000003
211 1 13.019999999999998 9.0700000000000003 1.0700000000000001
212 2 13.479999999999999 8.7900000000000009 1.8600000000000001
213 2 13.049999000000001 10.02 1.1000000000000001
214 1 12.99 9.1600000000000001 5.6200000000000001
215 2 13.470000000000001 8.8200009999999995 6.3799999999999999
216 2 13.470000000000001 8.8099990000000012 4.8699999999999992
217 1 9.1500009999999996 11.960000000000001 7.9099999999999993
218 2 9.1600000000000001 11.009999000000002 7.879999999999999
219 2 9.6100010000000005 12.24 7.1100000000000003
220 1 9.1199999999999992 11.870001000000002 3.3599999999999994
221 2 9.5999990000000004 12.200001000000002 2.5999999999999996
222 2 9.5999990000000004 12.209999 4.1100000000000003
223 1 10.449999999999999 12.84 1.1499999999999999
224 2 10.039999 12.52 0.34999999999999992
225 2 11.35 12.5 1.1100000000000001
226 1 10.41 8.1699999999999999 1.0700000000000001
227 2 10 8.5200000000000014 1.8699999999999999
228 2 11.31 8.5 1.1100000000000001
229 1 14.289999999999999 8.2200000000000006 3.3700000000000001
230 2 15.199999999999999 8.5099999999999998 3.3700000000000001
231 2 14.34 7.2599999999999998 3.3700000000000001
232 1 14.309998999999998 8.1600000000000001 7.8299999999999992
233 2 15.199999999999999 8.5099999999999998 7.8599999999999994
234 2 13.9 8.4900000000000002 8.6300000000000008
235 1 14.440001000000001 12.83 7.8599999999999994
236 2 13.949999999999999 12.5 7.0999999999999996
237 2 13.960000000000003 12.5 8.6199999999999974
238 1 9.1699999999999999 9.2100000000000026 7.919999999999999
239 2 8.2799999999999994 8.8599999999999994 7.8899999999999988
240 2 9.5899999999999999 8.8599999999999994 7.1299999999999999
241 1 16.940000999999999 9.1100010000000005 3.3199999999999998
242 2 17.399999999999999 8.8300000000000001 4.1200000000000001
243 2 16.970001 10.07 3.3599999999999994
244 1 20.84 11.83 1.1100000000000001
245 2 21.32 12.16 0.34999999999999992
246 2 21.32 12.16 1.8600000000000001
247 1 22.229999999999997 12.740001000000001 3.3100000000000001
248 2 22.200001 13.699999999999999 3.3399999999999999
249 2 21.77 12.460001 4.0999999999999996
250 1 20.869999 11.92 5.5599999999999996
251 2 20.880001 10.959999 5.5999999999999988
252 2 21.329998 12.200001000000002 6.3600000000000003
253 1 18.23 8.1900010000000005 5.5800000000000001
254 2 19.129999000000002 8.5200000000000014 5.6100000000000003
255 2 17.82 8.5399999999999991 6.3700000000000001
256 1 18.25 12.790001 5.6100000000000003
257 2 18.290001 13.740000000000002 5.6100000000000003
258 2 19.170000000000002 12.51 5.6100000000000003
259 1 20.920000000000002 9.0700000000000003 1.1200000000000001
260 2 20.889999 10.02 1.1100000000000001
261 2 20 8.7900000000000009 1.1200000000000001
262 1 20.82 9.1600000000000001 5.6200000000000001
263 2 21.289999000000002 8.8099990000000012 4.8699999999999992
264 2 21.289999000000002 8.8200009999999995 6.3799999999999999
265 1 17.02 11.890000000000001 7.9099999999999993
266 2 17.439999 12.220000000000001 7.1100000000000003
267 2 16.119999 12.209999 7.8699999999999992
268 1 16.940000999999999 11.870001000000002 3.3599999999999994
269 2 17.420000000000002 12.209999 4.1100000000000003
270 2 17.420000000000002 12.200001000000002 2.5999999999999996
271 1 18.279999 12.84 1.1499999999999999
272 2 17.860001 12.52 0.34999999999999992
273 2 19.170000000000002 12.5 1.1100000000000001
274 1 18.290001 8.2500000000000018 1.0700000000000001
275 2 18.279999 7.29 1.1100000000000001
276 2 17.829999999999998 8.5200000000000014 1.8699999999999999
277 1 22.139999 8.1400000000000023 3.4199999999999999
278 2 21.719999000000001 8.4800000000000022 2.6299999999999994
279 2 23.029999 8.4900000000000002 3.3900000000000001
280 1 22.110001 8.2400000000000002 7.879999999999999
281 2 22.16 7.2800000000000002 7.8699999999999992
282 2 23.02 8.5299999999999994 7.879999999999999
283 1 22.149999999999999 12.76 7.8599999999999994
284 2 22.18 13.719999 7.8599999999999994
285 2 23.07 12.49 7.8599999999999994
286 1 16.940000999999999 9.1300000000000008 7.8299999999999992
287 2 16.970001 10.089999000000001 7.8599999999999994
288 2 17.389999 8.8499999999999996 8.6199999999999974
289 1 1.3 16.469999000000005 3.4199999999999999
290 2 1.75 16.18 2.6200000000000001
291 2 1.3300000000000001 17.420000000000005 3.3799999999999999
292 1 5.2199999999999998 19.25 1.1499999999999999
293 2 5.2400000000000002 18.300001000000005 1.1200000000000001
294 2 5.6799999999999997 19.529999 0.35999999999999999
295 1 6.6100000000000003 20.170000000000002 3.3500000000000001
296 2 6.129999999999999 19.840000000000003 4.1100000000000003
297 2 6.129999999999999 19.829999999999998 2.5999999999999996
298 1 5.2800000000000002 19.199998999999998 5.5599999999999996
299 2 4.3799999999999999 19.540001 5.5999999999999988
300 2 5.7000000000000002 19.529999 6.3600000000000003
301 1 2.5899999999999999 15.540000000000001 5.6699999999999999
302 2 2.1699999999999999 15.880001000000002 4.8799999999999999
303 2 3.4900000000000007 15.869999999999999 5.6299999999999999
304 1 2.6899999999999999 20.139999 5.5599999999999996
305 2 2.6499999999999999 21.099998000000003 5.5899999999999999
306 2 2.23 19.859998999999998 6.3499999999999996
307 1 5.1699999999999999 16.500000000000004 1.1200000000000001
308 2 5.6500000000000004 16.160000000000004 0.35999999999999999
309 2 5.6500000000000004 16.149999999999999 1.8699999999999999
310 1 5.2000000000000002 16.440000999999999 5.5800000000000001
311 2 5.2300000000000004 17.389999 5.6100000000000003
312 2 5.6500000000000004 16.160000000000004 6.3700000000000001
313 1 1.3200000000000001 19.32 7.8199999999999994
314 2 1.3300000000000001 18.360001 7.8499999999999996
315 2 1.7799999999999998 19.59 8.6099999999999977
316 1 1.3 19.230000000000004 3.3599999999999994
317 2 1.7799999999999998 19.559999000000001 4.1100000000000003
318 2 1.7799999999999998 19.559999000000001 2.5999999999999996
319 1 2.6299999999999999 20.200001 1.1499999999999999
320 2 2.2200000000000002 19.869999 0.34999999999999992
321 2 3.5200000000000005 19.850000000000001 1.1100000000000001
322 1 2.5600000000000001 15.599999000000002 1.1200000000000001
323 2 3.48 15.880001000000002 1.1200000000000001
324 2 2.6099999999999999 14.639999 1.1100000000000001
325 1 6.4899999999999993 15.5 3.3299999999999996
326 2 6.0699999999999994 15.84 4.1200000000000001
327 2 7.3799999999999999 15.84 3.3599999999999994
328 1 6.54 15.59 7.8299999999999992
329 2 6.5299999999999994 14.630001000000002 7.8599999999999994
330 2 6.0899999999999999 15.859999999999999 8.6300000000000008
331 1 6.5099999999999989 20.109999000000002 7.8599999999999994
332 2 7.4299999999999997 19.850000000000001 7.8599999999999994
333 2 6.5299999999999994 21.070002000000002 7.8599999999999994
334 1 1.3500000000000001 16.559999000000001 7.919999999999999
335 2 0.46000000000000002 16.210000999999998 7.8899999999999988
336 2 1.7699999999999998 16.219999000000001 7.1299999999999999
337 1 9.1199999999999992 16.469999000000005 3.4199999999999999
338 2 9.5700000000000003 16.18 2.6200000000000001
339 2 9.1500009999999996 17.420000000000005 3.3799999999999999
340 1 13.099999 19.180000000000003 1.0600000000000001
341 2 12.209999 19.529999 1.0899999999999999
342 2 13.519999999999998 19.52 1.8500000000000001
343 1 14.349999 20.170000000000002 3.3100000000000001
344 2 15.249999999999998 19.840000000000003 3.3500000000000001
345 2 13.940001000000001 19.840000000000003 4.0999999999999996
346 1 13.049999000000001 19.27 5.5599999999999996
347 2 13.509998999999999 19.550001000000002 6.3600000000000003
348 2 13.059998999999999 18.32 5.5999999999999988
349 1 10.49 15.540000000000001 5.6299999999999999
350 2 10.02 15.880001000000002 4.8699999999999992
351 2 10.01 15.889999000000001 6.3799999999999999
352 1 10.43 20.139999 5.6100000000000003
353 2 11.339999000000001 19.859998999999998 5.6100000000000003
354 2 10.470000000000001 21.099998000000003 5.6100000000000003
355 1 13.099999 16.420000000000002 1.1200000000000001
356 2 12.18 16.149999999999999 1.1200000000000001
357 2 13.070000999999998 17.380001000000004 1.1100000000000001
358 1 13.070000999999998 16.510000000000002 5.6699999999999999
359 2 13.490000000000002 16.170000000000002 4.8799999999999999
360 2 12.18 16.18 5.6299999999999999
361 1 9.1500009999999996 19.32 7.9099999999999993
362 2 9.6100010000000005 19.59 7.1100000000000003
363 2 9.1600000000000001 18.360001 7.879999999999999
364 1 9.1999999999999993 19.230000000000004 3.3100000000000001
365 2 8.3000000000000007 19.550001000000002 3.3500000000000001
366 2 9.6100010000000005 19.559999000000001 4.1100000000000003
367 1 10.51 20.120000999999998 1.0600000000000001
368 2 10.050000000000001 19.840000000000003 1.8500000000000001
369 2 10.48 21.079999999999998 1.0899999999999999
370 1 10.460000000000001 15.599999000000002 1.1699999999999999
371 2 10.449999999999999 14.639999 1.1200000000000001
372 2 10.01 15.880001000000002 0.37
373 1 14.309998999999998 15.5 3.4199999999999999
374 2 13.890000000000001 15.830000000000002 2.6299999999999994
375 2 15.199999999999999 15.84 3.3900000000000001
376 1 14.359999999999998 15.59 7.919999999999999
377 2 13.909999999999998 15.869999999999999 7.1299999999999999
378 2 14.359999999999998 14.630001000000002 7.879999999999999
379 1 14.329999999999998 20.109999000000002 7.8599999999999994
380 2 14.359999999999998 21.070002000000002 7.8599999999999994
381 2 15.249999999999998 19.850000000000001 7.8599999999999994
382 1 9.1699999999999999 16.559999000000001 7.8299999999999992
383 2 9.5899999999999999 16.219999000000001 8.6199999999999974
384 2 8.2799999999999994 16.210000999999998 7.8599999999999994
385 1 16.920000000000002 16.540001 3.3700000000000001
386 2 17.389999 16.200001 2.6099999999999999
387 2 17.389999 16.200001 4.1299999999999999
388 1 20.869999 19.25 1.1499999999999999
389 2 21.329998 19.529999 0.35999999999999999
390 2 20.880001 18.300001000000005 1.1200000000000001
391 1 22.18 20.170000000000002 3.3999999999999999
392 2 23.080002 19.840000000000003 3.3599999999999994
393 2 21.760002 19.829999999999998 2.6099999999999999
394 1 20.84 19.199998999999998 5.6100000000000003
395 2 21.32 19.529999 6.3700000000000001
396 2 21.32 19.529999 4.8499999999999996
397 1 18.23 15.540000000000001 5.5800000000000001
398 2 17.82 15.889999000000001 6.3700000000000001
399 2 19.129999000000002 15.869999999999999 5.6100000000000003
400 1 18.279999 20.220001 5.6499999999999995
401 2 19.170000000000002 19.869999 5.6200000000000001
402 2 17.860001 19.880001 4.8599999999999994
403 1 20.899999999999999 16.489999999999998 1.1599999999999999
404 2 21.310001 16.160000000000004 0.35999999999999999
405 2 20 16.160000000000004 1.1299999999999999
406 1 20.84 16.440000999999999 5.6699999999999999
407 2 21.300001000000002 16.149999999999999 4.8799999999999999
408 2 20.869999 17.389999 5.6299999999999999
409 1 16.970001 19.32 7.9099999999999993
410 2 16.98 18.360001 7.879999999999999
411 2 17.43 19.59 7.1100000000000003
412 1 16.970001 19.299999000000003 3.3999999999999999
413 2 17.43 19.570000000000004 2.6099999999999999
414 2 16.98 18.34 3.3700000000000001
415 1 18.25 20.120000999999998 1.1000000000000001
416 2 18.290001 21.079999999999998 1.1100000000000001
417 2 19.170000000000002 19.850000000000001 1.1000000000000001
418 1 18.290001 15.599999000000002 1.1699999999999999
419 2 17.84 15.880001000000002 0.37
420 2 18.279999 14.639999 1.1200000000000001
421 1 22.139999 15.5 3.4199999999999999
422 2 23.029999 15.84 3.3900000000000001
423 2 21.719999000000001 15.830000000000002 2.6299999999999994
424 1 22.209999 15.52 7.879999999999999
425 2 21.739999999999998 15.859999999999999 7.1200000000000001
426 2 21.739999999999998 15.85 8.6400000000000006
427 1 22.18 20.190001000000002 7.8099999999999996
428 2 21.77 19.850000000000001 8.6099999999999977
429 2 23.080002 19.859998999999998 7.8499999999999996
430 1 17 16.559999000000001 7.8299999999999992
431 2 16.100000000000001 16.210000999999998 7.8599999999999994
432 2 17.41 16.219999000000001 8.6199999999999974
433 1 1.27 1.8300000000000001 12.410000999999999
434 2 1.75 1.49 13.16
435 2 1.75 1.49 11.649999999999999
436 1 5.2999999999999998 4.5499999999999998 10.140000000000001
437 2 4.3899999999999997 4.8300000000000001 10.140000000000001
438 2 5.25 3.5900000000000003 10.15
439 1 6.589999999999999 5.3899999999999997 12.439999999999998
440 2 6.129999999999999 5.1100000000000003 11.649999999999999
441 2 6.5499999999999989 6.3400000000000007 12.410000999999999
442 1 5.2800000000000002 4.4900000000000011 14.689999999999998
443 2 5.7000000000000002 4.8200000000000003 13.899999999999999
444 2 4.3799999999999999 4.8399999999999999 14.66
445 1 2.5899999999999999 0.83999999999999997 14.619999999999997
446 2 2.1699999999999999 1.1799999999999999 15.41
447 2 3.4900000000000007 1.1700000000000002 14.650000999999998
448 1 2.71 5.5099999999999998 14.639999
449 2 2.23 5.1699999999999999 13.889999999999999
450 2 2.23 5.1800000000000006 15.4
451 1 5.25 1.79 10.110001
452 2 4.3499999999999996 1.4600000000000002 10.140000000000001
453 2 5.6600000000000001 1.4500000000000002 10.900000999999998
454 1 5.2000000000000002 1.73 14.609999999999998
455 2 5.2300000000000004 2.6900000000000004 14.639999
456 2 5.6500000000000004 1.4500000000000002 15.41
457 1 1.3200000000000001 4.6100000000000003 16.849997999999999
458 2 1.3300000000000001 3.6500000000000004 16.889999
459 2 1.7799999999999998 4.8799999999999999 17.649999999999999
460 1 1.3200000000000001 4.5899999999999999 12.439999999999998
461 2 1.7799999999999998 4.8700000000000001 11.649999999999999
462 2 1.3300000000000001 3.6400000000000001 12.410000999999999
463 1 2.6899999999999999 5.410000000000001 10.179999999999998
464 2 2.6499999999999999 6.370000000000001 10.16
465 2 2.23 5.1399999999999997 9.3899999999999988
466 1 2.6400000000000001 0.89000000000000001 10.199999999999998
467 2 2.1899999999999999 1.1799999999999999 9.4100000000000001
468 2 2.6299999999999999 22.000719 10.16
469 1 6.4899999999999993 0.79000000000000004 12.359999999999999
470 2 7.3799999999999999 1.1399999999999999 12.389999
471 2 6.0699999999999994 1.1299999999999999 13.150000999999998
472 1 6.54 0.88000000000000012 16.870000999999998
473 2 6.5299999999999994 21.990718999999999 16.900002000000001
474 2 6.0899999999999999 1.1499999999999999 17.670000000000002
475 1 6.589999999999999 5.410000000000001 16.940000999999999
476 2 6.129999999999999 5.1300000000000008 16.149999999999999
477 2 6.5499999999999989 6.3600000000000012 16.91
478 1 1.3500000000000001 1.8500000000000003 16.860001
479 2 1.7699999999999998 1.5100000000000002 17.659999999999997
480 2 0.46000000000000002 1.5100000000000002 16.889999
481 1 9.1199999999999992 1.7600000000000002 12.359999999999999
482 2 9.1500009999999996 2.71 12.389999
483 2 9.5700000000000003 1.48 13.150000999999998
484 1 13.099999 4.4699999999999998 10.190001000000001
485 2 12.209999 4.8200000000000003 10.15
486 2 13.519999999999998 4.8099999999999996 9.3999999999999986
487 1 14.440001000000001 5.4600000000000009 12.389999
488 2 13.949999999999999 5.1200000000000001 11.629999999999999
489 2 13.949999999999999 5.1300000000000008 13.150000999999998
490 1 13.099999 4.4900000000000011 14.599999999999998
491 2 12.209999 4.8399999999999999 14.639999
492 2 13.519999999999998 4.8300000000000001 15.390000000000001
493 1 10.41 0.83999999999999997 14.619999999999997
494 2 11.31 1.1700000000000002 14.650000999999998
495 2 10 1.1799999999999999 15.41
496 1 10.51 5.4300000000000006 14.599999999999998
497 2 10.48 6.3899999999999997 14.630000999999998
498 2 10.050000000000001 5.1500000000000004 15.390000000000001
499 1 13.099999 1.7100000000000002 10.15
500 2 12.18 1.4399999999999999 10.15
501 2 13.070000999999998 2.6699999999999999 10.15
502 1 13.019999999999998 1.73 14.700000999999999
503 2 13.479999999999999 1.4399999999999999 13.909999999999998
504 2 13.049999000000001 2.6900000000000004 14.669999999999998
505 1 9.1999999999999993 4.54 16.849997999999999
506 2 9.6100010000000005 4.8600000000000003 17.649999999999999
507 2 8.3000000000000007 4.8600000000000003 16.889999
508 1 9.1999999999999993 4.5199999999999996 12.35
509 2 9.6100010000000005 4.8600000000000003 13.140000000000001
510 2 8.3000000000000007 4.8399999999999999 12.389999
511 1 10.539999999999999 5.4900000000000002 10.140000000000001
512 2 10.050000000000001 5.160000000000001 9.3800000000000008
513 2 10.050000000000001 5.160000000000001 10.889999
514 1 10.460000000000001 0.89000000000000001 10.110001
515 2 10.01 1.1700000000000002 10.91
516 2 10.449999999999999 22.000719 10.15
517 1 14.309998999999998 0.79000000000000004 12.460000999999998
518 2 13.890000000000001 1.1299999999999999 11.659999999999998
519 2 15.199999999999999 1.1399999999999999 12.42
520 1 14.390000000000001 0.81000000000000005 16.91
521 2 13.909999999999998 1.1399999999999999 17.670000000000002
522 2 13.909999999999998 1.1499999999999999 16.16
523 1 14.329999999999998 5.4000000000000004 16.889999
524 2 15.249999999999998 5.1399999999999997 16.900002000000001
525 2 14.359999999999998 6.3600000000000012 16.900002000000001
526 1 9.1999999999999993 1.78 16.91
527 2 8.2799999999999994 1.5000000000000002 16.91
528 2 9.1600000000000001 2.7300000000000004 16.91
529 1 16.920000000000002 1.8300000000000001 12.410000999999999
530 2 17.389999 1.49 13.16
531 2 17.389999 1.49 11.649999999999999
532 1 20.920000000000002 4.4699999999999998 10.1
533 2 20.030000999999999 4.8200000000000003 10.130000000000001
534 2 21.34 4.8099999999999996 10.889999
535 1 22.149999999999999 5.3899999999999997 12.389999
536 2 22.18 6.3400000000000007 12.4
537 2 23.07 5.1200000000000001 12.389999
538 1 20.920000000000002 4.4900000000000011 14.689999999999998
539 2 21.34 4.8200000000000003 13.899999999999999
540 2 20.030000999999999 4.8399999999999999 14.66
541 1 18.290001 0.91000000000000003 14.619999999999997
542 2 17.829999999999998 1.1900000000000002 15.41
543 2 18.279999 22.020719 14.650000999999998
544 1 18.329999999999998 5.4300000000000006 14.689999999999998
545 2 17.869999 5.1500000000000004 13.899999999999999
546 2 18.300001000000002 6.3899999999999997 14.66
547 1 20.84 1.7100000000000002 10.110001
548 2 21.300001000000002 1.4299999999999999 10.900000999999998
549 2 20.869999 2.6699999999999999 10.140000000000001
550 1 20.920000000000002 1.73 14.66
551 2 20.889999 2.6900000000000004 14.650000999999998
552 2 20 1.4600000000000002 14.66