LAMMPS data file via write_data, version 2 Jun 2020, timestep = 2000000

192 atoms
2 atom types

0.0 12.5089 xlo xhi
0.0 12.5089 ylo yhi
0.0 12.5089 zlo zhi

Masses

1 15.9994
2 1.00794

Atoms # atomic

17 2 2.3442960865691475e+01 2.2090346922081093e+01 1.6213217251737760e+01 0 0 0
16 1 2.3295344895364849e+01 2.1128576461954221e+01 1.6231933391487502e+01 0 0 0
18 2 2.2553690101951808e+01 2.1075853431782761e+01 1.5470421137980580e+01 0 0 0
140 2 2.3292670823266697e+01 2.0416676905482628e+01 1.7561829334027234e+01 1 0 1
58 1 2.3425137982888870e+01 2.3830648809589174e+01 1.6126275278169825e+01 0 0 0
93 2 2.4588956445806836e+01 2.0350602170112086e+01 1.5248627388417807e+01 -1 1 0
125 2 2.1488026796068258e+01 2.0138089292402430e+01 1.4340763330542671e+01 1 1 1
92 2 2.5654347610005427e+01 2.0245033260350393e+01 1.4264325850287291e+01 -1 1 0
124 1 2.1642925534707246e+01 2.1055147547250137e+01 1.4093809827404062e+01 1 1 1
143 2 2.8016643778302424e+01 2.3151166693675012e+01 1.4715217543403668e+01 0 0 1
142 1 2.8566937063837109e+01 2.3834897112415696e+01 1.5110768781701051e+01 0 0 1
71 2 2.9365339867852633e+01 2.2495907779597530e+01 1.6057583080825346e+01 -1 1 0
70 1 2.9884295558215033e+01 2.1748322272405666e+01 1.6578649291471908e+01 -1 1 0
72 2 2.9207461283726765e+01 2.1181049346793575e+01 1.6969442259943214e+01 -1 1 0
38 2 3.1004069868973026e+01 2.2394558644554365e+01 1.7854062476723524e+01 0 0 0
136 1 2.8111443872955697e+01 1.9941376586677894e+01 1.7810578183181736e+01 0 0 0
112 1 2.6975074112842609e+01 2.1733942459487491e+01 1.3735273659312583e+01 -1 -1 1
59 2 2.2559492115177374e+01 2.4104540024845615e+01 1.6540540697979360e+01 0 0 0
12 2 2.3655953502257873e+01 2.4389732108137292e+01 1.5367036778396422e+01 0 0 0
29 2 2.6188339016498588e+01 2.4801968143815529e+01 1.7435176368093355e+01 0 0 -1
52 1 2.1006408156024516e+01 2.4845616535741740e+01 1.7363082950828002e+01 0 0 0
95 2 2.3060784667837719e+01 2.7790247489953437e+01 1.7060685183567518e+01 0 0 0
94 1 2.3283606574541214e+01 2.8169823731415342e+01 1.6213909313084720e+01 0 0 0
1 1 2.5764959244539341e+01 2.7281184693198444e+01 1.4979340382154371e+01 0 -1 0
2 2 2.5237971891131700e+01 2.7899494908201376e+01 1.5493451922161285e+01 0 -1 0
135 2 2.5076970673182551e+01 2.5520062185195691e+01 1.3847492575906589e+01 1 0 0
75 2 2.6199108372224813e+01 2.7805607115416379e+01 1.4223092608094934e+01 1 0 0
174 2 2.0805839103349172e+01 2.6807055382669084e+01 1.4540020500329263e+01 1 0 1
30 2 2.4702838943104979e+01 2.4132571873069949e+01 1.7340207853338686e+01 0 0 -1
73 1 2.1641383179917451e+01 2.8135103589442082e+01 1.3612936738928502e+01 0 0 0
144 2 2.9203988120946356e+01 2.4123103379381551e+01 1.4397507569846940e+01 0 0 1
53 2 3.2088237543740483e+01 2.5225223792935552e+01 1.6862753278768114e+01 -1 0 0
44 2 2.7542528404005171e+01 2.4991399075987651e+01 1.5848485769972244e+01 0 0 0
45 2 2.6902183175321525e+01 2.6441352818011037e+01 1.5813804334890744e+01 0 0 0
43 1 2.7321709025204939e+01 2.5784310016817926e+01 1.6425088733796777e+01 0 0 0
172 1 3.2061329672895702e+01 2.6051647489722694e+01 1.4906180177521408e+01 0 0 1
173 2 3.1429896345376033e+01 2.5717362133213513e+01 1.4258883517574667e+01 0 0 1
62 2 3.0684434910189140e+01 2.7619345385818264e+01 1.5245976318074533e+01 0 0 0
61 1 3.0201494853835968e+01 2.8114379480864493e+01 1.5954735677443351e+01 0 0 0
63 2 2.9960207664598016e+01 2.7542294248946824e+01 1.6675375415013768e+01 0 0 0
9 2 2.8562599421904110e+01 2.6262457029966896e+01 1.7721606238496598e+01 0 0 0
96 2 2.2984110858332059e+01 2.9101855704125494e+01 1.6242190639361763e+01 0 0 0
80 2 2.3947507985050464e+01 3.0977430924027640e+01 1.4409618490290240e+01 0 0 0
127 1 2.1808657246779635e+01 3.0531557945775749e+01 1.7125847596004757e+01 1 -1 1
105 2 2.2346549736276106e+01 3.1152842247893112e+01 1.7674717886833598e+01 1 -1 1
128 2 2.1205464734006217e+01 3.0085901955251455e+01 1.7664370164836615e+01 1 -1 1
79 1 2.3320122496082348e+01 3.0267508993731845e+01 1.4032458852451914e+01 0 0 0
57 2 2.2399662822047734e+01 3.0635095283052152e+01 1.4292640102044306e+01 0 0 0
100 1 2.1055176851945617e+01 3.1448774785089483e+01 1.4645197232332622e+01 0 -1 0
102 2 2.1146104723552277e+01 3.1433800526824072e+01 1.5601729110613974e+01 0 -1 0
74 2 2.2475681664068571e+01 2.8357945741405068e+01 1.4112903992536054e+01 0 0 0
91 1 2.5007344493703116e+01 3.2466907298771837e+01 1.4685249481706952e+01 -1 0 0
5 2 2.4991017199698330e+01 2.8663279084148762e+01 1.7597733009138224e+01 0 0 0
6 2 2.6005746679938166e+01 2.9810695883500625e+01 1.7260974138912321e+01 0 0 0
21 2 2.6330599017867129e+01 3.1629414423470205e+01 1.5628141842926521e+01 0 -1 -1
19 1 2.6777065887481356e+01 3.1142968567924108e+01 1.6343486312610157e+01 0 -1 -1
20 2 2.7345019365450955e+01 3.1761273024537399e+01 1.6851933837281798e+01 0 -1 -1
66 2 2.7734893953487408e+01 3.0009556477672181e+01 1.5634704866631006e+01 -1 0 0
147 2 2.7964609029241640e+01 2.9054093138305390e+01 1.3719755231322715e+01 0 1 0
101 2 3.1915420697399433e+01 3.1448307151377385e+01 1.4269245605992115e+01 -1 -1 0
65 2 2.8986541087136075e+01 2.9001973091348901e+01 1.5311358132581256e+01 -1 0 0
64 1 2.8482961493140273e+01 2.9754642537675963e+01 1.5024449204833523e+01 -1 0 0
150 2 3.1097915217938052e+01 2.8983657565627084e+01 1.7346811251844567e+01 -1 0 0
81 2 2.9358187842877772e+01 3.0957132295788032e+01 1.4049031860894885e+01 0 0 0
55 1 3.0124083874602697e+01 3.1538910359636873e+01 1.3750177321209028e+01 -1 0 0
84 2 2.1896681730263516e+01 2.1658295647620459e+01 2.0429990575093225e+01 1 1 0
151 1 2.2542560015031800e+01 2.3450167138470952e+01 2.1372969990298039e+01 0 0 0
34 1 2.1340149510276600e+01 2.1088564591795517e+01 1.9812079742468015e+01 1 0 0
141 2 2.2241316715036948e+01 2.0302044737913750e+01 1.8798075349233756e+01 1 0 1
177 2 2.1721032330588063e+01 2.3649680346705150e+01 2.1831366308687372e+01 1 0 0
139 1 2.2975329237021263e+01 1.9841833723957517e+01 1.8335117244514358e+01 1 0 1
35 2 2.0689956887409565e+01 2.1737197310098530e+01 1.9372872403373783e+01 1 0 0
146 2 2.0356125647209176e+01 1.9922360655783613e+01 2.0739436685138589e+01 0 1 -1
7 1 2.5238060675138712e+01 2.0330314690431265e+01 2.1108498418400078e+01 -1 1 0
8 2 2.5976750695051066e+01 2.0702241004034256e+01 2.0571855798092912e+01 -1 1 0
155 2 2.6438265258508558e+01 2.2810228144188560e+01 1.8754485275104624e+01 0 0 0
154 1 2.6899718117898324e+01 2.2129517108470363e+01 1.9361226833044995e+01 0 0 0
108 2 2.7599034348547267e+01 2.2585763790405000e+01 1.9885165885866375e+01 0 0 0
138 2 2.7547644358498339e+01 2.0549407609279083e+01 1.8330360190540926e+01 0 0 0
37 1 3.1443586629095883e+01 2.2868502001379028e+01 1.8585618936213063e+01 0 0 0
190 1 2.8516942790282812e+01 2.2713812564779587e+01 2.1824307397892127e+01 0 1 0
39 2 3.0824240588397963e+01 2.3245685365561346e+01 1.9207319178115480e+01 0 0 0
98 2 3.0020848422667456e+01 1.9871901129440072e+01 2.1999141662076472e+01 -1 0 0
191 2 2.9241432090625189e+01 2.3295073789235925e+01 2.1471399201021988e+01 0 1 0
192 2 2.7858181951366944e+01 2.3317446996693171e+01 2.2164288355884977e+01 0 1 0
54 2 2.0555967285007871e+01 2.4196783493035706e+01 1.7891714741824064e+01 0 0 0
152 2 2.2840454936385704e+01 2.4127276444024389e+01 2.0699001736545952e+01 0 0 0
28 1 2.5536177037738572e+01 2.4146189200627571e+01 1.7882956682055973e+01 0 0 -1
183 2 2.1710588444394773e+01 2.6329391325460737e+01 1.8066698390149483e+01 0 0 1
181 1 2.2290560854708570e+01 2.6970129099902834e+01 1.8521888788878151e+01 0 0 1
119 2 2.3371321944773214e+01 2.5639411795607604e+01 1.9161241460201190e+01 0 0 0
182 2 2.1823675503363944e+01 2.7519139966529334e+01 1.9250314220274308e+01 0 0 1
49 1 2.0969124383521510e+01 2.8300576228950170e+01 2.0224072853811208e+01 0 0 0
118 1 2.3811731050647627e+01 2.4888619341291609e+01 1.9523414744110202e+01 0 0 0
120 2 2.4667344470062041e+01 2.4713012095802640e+01 1.8963978986666813e+01 0 0 0
104 2 2.4939091564560641e+01 2.5218876001889548e+01 2.0927481865864873e+01 0 0 1
103 1 2.5439426385382909e+01 2.5890982544957449e+01 2.1446556338917375e+01 0 0 1
165 2 2.0487061382888573e+01 2.6741549176809496e+01 2.1490639173375239e+01 0 0 0
129 2 2.6121213486609125e+01 2.5460973465691193e+01 2.2013254039042238e+01 1 0 1
111 2 2.6472694918036293e+01 2.6848297866986606e+01 2.0600957547375657e+01 0 -1 1
109 1 2.6997103071971868e+01 2.7537194995045645e+01 2.0121704247502535e+01 0 -1 1
32 2 2.9174909210206103e+01 2.7026409034085134e+01 1.8881564437448645e+01 0 0 0
163 1 3.1780436406551203e+01 2.6276250256115688e+01 2.2128701568584930e+01 -1 0 0
31 1 2.9416448188334819e+01 2.6460555916158206e+01 1.8168946815456970e+01 0 0 0
169 1 3.0434264261810402e+01 2.4457970059992014e+01 2.0392116561479405e+01 0 0 0
99 2 2.9917757808808240e+01 2.5134503385851502e+01 1.9880474546586207e+01 0 0 0
170 2 3.0756649819868116e+01 2.4995342990030167e+01 2.1153538574510041e+01 0 0 0
110 2 2.6445518429514856e+01 2.7847349319241630e+01 1.9392399068604718e+01 0 -1 1
33 2 2.5095673655911561e+01 3.2316054549194668e+01 2.0545746551882523e+01 0 0 0
50 2 2.1477718509170565e+01 2.9040750384455528e+01 2.0641663508566534e+01 0 0 0
27 2 2.0417050939249208e+01 2.8730352974216444e+01 1.9556677790201565e+01 1 0 0
189 2 2.4138397057979869e+01 3.1745752486662681e+01 1.8887294197858481e+01 0 0 0
85 1 2.3028114079088308e+01 2.9951011892972772e+01 2.1361059127011266e+01 0 0 0
87 2 2.3548094304110361e+01 3.0340710608042937e+01 2.0635089328592954e+01 0 0 0
187 1 2.4709637578846117e+01 3.1080616191688495e+01 1.9478379881270335e+01 0 0 0
188 2 2.5306370519705787e+01 3.0633425259684063e+01 1.8890215762548895e+01 0 0 0
4 1 2.5816227041451626e+01 2.9070772658035757e+01 1.7879579272362434e+01 0 0 0
86 2 2.3473055755596661e+01 2.9165922587136681e+01 2.1783054131407752e+01 0 0 0
145 1 3.1500353826051089e+01 3.2135909490797907e+01 2.1234685640589099e+01 -1 0 -1
123 2 3.1953372058620957e+01 3.1899974402591440e+01 2.2060218410489959e+01 0 0 -1
36 2 2.6595880974942183e+01 3.2056787338397314e+01 2.1984487954026111e+01 0 0 -1
167 2 2.7821073033387805e+01 2.8805673622051046e+01 2.0820231103882950e+01 0 0 0
137 2 2.8708531969104506e+01 3.2342690018076851e+01 1.8522010623879897e+01 0 -1 0
148 1 3.1402794837543624e+01 2.9361516312436990e+01 1.8225938908313122e+01 -1 0 0
149 2 3.0844943843061742e+01 3.0096992382033434e+01 1.8503581425869488e+01 -1 0 0
41 2 2.9433292627599023e+01 3.0485116557035070e+01 2.0176584081128610e+01 0 -1 0
40 1 2.9868609732761570e+01 3.1040436358430711e+01 1.9469792929441670e+01 0 -1 0
42 2 3.0514664721153022e+01 3.1447410115321347e+01 2.0047108178905194e+01 0 -1 0
168 2 2.7823576653881545e+01 3.0223989107359046e+01 2.1512504290213929e+01 0 0 0
166 1 2.8446476559979647e+01 2.9512727284230081e+01 2.1180847311359123e+01 0 0 0
131 2 2.4836955291552684e+01 2.1454058719095912e+01 2.2490598732853318e+01 0 0 0
180 2 2.3653110079657750e+01 2.2419748862978551e+01 2.2436238408244353e+01 0 1 0
126 2 2.2034668307538762e+01 2.0849950594315281e+01 2.6204825112152513e+01 1 1 0
51 2 2.3745777195228538e+01 2.0838544080900032e+01 2.4249760346300988e+01 0 1 -1
48 2 2.0353233697708163e+01 2.3384935696091194e+01 2.4707231988177710e+01 1 0 -1
25 1 2.3329427032487089e+01 2.0282983766827570e+01 2.4894875388965289e+01 0 0 -1
130 1 2.4297598984260933e+01 2.2012027395236384e+01 2.3064813218962215e+01 0 0 0
77 2 2.5179656768762307e+01 2.2856904766451372e+01 2.4198208774376777e+01 0 1 -1
76 1 2.5831648188044532e+01 2.3348686200921360e+01 2.4811656180071008e+01 0 1 -1
78 2 2.5230110687270869e+01 2.3844311820861829e+01 2.5365528799110550e+01 0 1 -1
26 2 2.4096748821033991e+01 1.9948415341433737e+01 2.5383639012367816e+01 0 0 -1
47 2 2.0422468502682779e+01 2.2478790739257434e+01 2.6042995990875102e+01 1 0 -1
171 2 2.8851082845068063e+01 2.1063357136989815e+01 2.2177596234647563e+01 0 1 0
97 1 2.9201317976762695e+01 2.0114570840860956e+01 2.2496472756177322e+01 -1 0 0
113 2 2.6686366158052561e+01 2.2341222571045794e+01 2.5907628205991823e+01 -1 -1 0
114 2 2.7860120958267437e+01 2.1522333048194234e+01 2.6280152378643571e+01 -1 -1 0
46 1 3.1613551161574037e+01 2.2860403897525551e+01 2.5312252388687973e+01 0 0 -1
176 2 3.0085456993907307e+01 2.1777377064556582e+01 2.5467177709250009e+01 0 0 0
175 1 2.9278661201986978e+01 2.1321578412248993e+01 2.5215880794600313e+01 0 0 0
153 2 2.9267125141574404e+01 2.1101853281099515e+01 2.4260001372248443e+01 0 0 0
134 2 2.3851753747095248e+01 2.5456094834445008e+01 2.5871314969948287e+01 1 0 -1
178 1 2.1191984652083843e+01 2.4562983623507815e+01 2.3662506008651601e+01 1 0 0
132 2 2.1885879082505408e+01 2.5100672596848739e+01 2.4130195381435907e+01 1 0 0
159 2 2.2093733393477326e+01 2.7120728500867749e+01 2.5269787079397798e+01 -1 0 0
158 2 2.3080229063349922e+01 2.6724147541038231e+01 2.4203068549312853e+01 -1 0 0
157 1 2.2614150374367672e+01 2.6404240048784580e+01 2.4983036869425440e+01 -1 0 0
179 2 2.0721084468469485e+01 2.5177690988972657e+01 2.3119287415672876e+01 1 0 0
106 1 2.4071525055935862e+01 2.7940764400198375e+01 2.2919833147312865e+01 0 -1 0
133 1 2.4466851894494805e+01 2.4868757677768439e+01 2.6441367865026297e+01 1 0 -1
107 2 2.4672851394648717e+01 2.7229404480670173e+01 2.2521393983806931e+01 0 -1 0
162 2 2.6775429505221407e+01 2.4211692467418857e+01 2.3896912810196831e+01 0 1 0
161 2 2.7757898038250300e+01 2.5519328912478606e+01 2.3647742973531791e+01 0 1 0
160 1 2.7232018846641360e+01 2.4770136187377798e+01 2.3221432582185656e+01 0 1 0
164 2 3.1282614031580213e+01 2.6983380293447237e+01 2.2524767953943424e+01 -1 0 0
11 2 3.0681333973100934e+01 2.4305589496435928e+01 2.5705732099282667e+01 0 0 0
10 1 3.0004586453612667e+01 2.4856874847740102e+01 2.6098629322891743e+01 0 0 0
117 2 2.8038265133473210e+01 2.7415629677689410e+01 2.5019896868053298e+01 0 -1 0
60 2 2.9416196548935616e+01 2.5394182949411007e+01 2.5495497544836297e+01 0 1 0
115 1 2.8531921892580957e+01 2.6674889839819876e+01 2.4565199452840321e+01 0 -1 0
116 2 2.9171038737766146e+01 2.7090969390185634e+01 2.4028386668800383e+01 0 -1 0
88 1 3.0210046682238623e+01 2.8226414306193170e+01 2.3012092248680887e+01 0 -1 0
3 2 2.1305977859468687e+01 2.9043156543893957e+01 2.6376398214395170e+01 0 0 -1
14 2 2.2153057583744339e+01 3.0908525942711638e+01 2.2545277744791505e+01 0 -1 0
15 2 2.2210362044292772e+01 3.2115770103828915e+01 2.3695335303031008e+01 0 -1 0
13 1 2.1692168070370940e+01 3.1631598068066403e+01 2.3029156539321345e+01 0 -1 0
156 2 2.4653940238123980e+01 2.8393670668871998e+01 2.3545825169127358e+01 0 0 0
185 2 2.4334581363759469e+01 2.9772783189469138e+01 2.5677594337776856e+01 1 0 0
184 1 2.5175782218570575e+01 2.9662257708755853e+01 2.5188627235681640e+01 1 0 0
186 2 2.5537616465164344e+01 3.0587409714094125e+01 2.5168911112792973e+01 1 0 0
22 1 2.6157302339894091e+01 3.1994015310474534e+01 2.5009038439019029e+01 0 0 -1
121 1 2.7404288414002419e+01 2.8480211014864032e+01 2.6065581807953542e+01 0 0 -1
24 2 2.6959947474614598e+01 3.2244644590257657e+01 2.5453915966156515e+01 0 0 -1
68 2 3.2106673073501057e+01 3.0528803143992214e+01 2.4064266768460527e+01 0 1 -1
23 2 2.6423369997858106e+01 3.1812691093228572e+01 2.4035436932065732e+01 0 0 -1
122 2 2.6584413484958372e+01 2.9055772805642690e+01 2.5836415937322322e+01 0 0 -1
82 1 2.7121206006780508e+01 3.1437318831373769e+01 2.2549356760215474e+01 0 0 -1
83 2 2.8026542308372676e+01 3.1872519287115864e+01 2.2467108988543369e+01 0 0 -1
89 2 3.0772267304990475e+01 2.8907904784732985e+01 2.3449679736638465e+01 0 -1 0
67 1 3.1566292651962961e+01 2.9973279993794637e+01 2.4701418640216218e+01 0 1 -1
56 2 2.9782356807431992e+01 3.2129822960330216e+01 2.6058938748094338e+01 -1 0 -1
90 2 2.9601175057959175e+01 2.8689961461751935e+01 2.2393628409583549e+01 0 -1 0
69 2 3.1071715010230584e+01 3.0659925844562288e+01 2.5209077342696197e+01 0 1 -1

Velocities

17 -9.7721686181077558e+00 -1.7352876189639638e+01 1.6838304782982711e+01
16 2.5602582011785420e+00 -2.4470051439178788e+00 -8.0446539952451257e+00
18 2.3395876818441472e+01 1.2037785778889045e+01 -9.1326388770063271e+00
140 5.3360405975055851e+00 3.5343295786285658e+01 6.9199388900904797e+00
58 -4.4023643612769998e+00 -1.1501947217742860e+01 6.2754561429354663e+00
93 1.4973324327909476e+00 2.7791686325064454e+01 -2.5285902302062628e+00
125 1.0662130637433055e+01 -1.6588393289841644e+01 -2.2409534449957729e+01
92 8.4469307274301588e+00 1.9913889482928298e+01 -6.7140430826447428e+00
124 5.0112550567917857e+00 2.5492223846583917e+00 -1.5600295749286477e+00
143 5.5805858205492753e-01 -1.2068882435859109e+01 8.5695891702245497e+00
142 -4.0900347667376478e+00 -1.8024618904041212e-01 5.1288704496875619e+00
71 2.0168087997008435e+01 1.6622247789360753e+01 -9.7378819731982880e-01
70 1.2941148542771230e+00 -3.8668217340087501e+00 -6.0121969458585536e+00
72 -8.5363158939739545e+00 -1.5360013821718557e+01 1.4711462010238545e+01
38 -2.4573213839161259e+00 -2.1363385858369153e+01 1.4943022676175906e+01
136 4.2088916855020697e+00 -3.6040963761526625e+00 2.1563690794091763e+00
112 -2.4963410342765888e+00 -1.3698049549598592e+00 -5.9453553295858264e-01
59 1.6879531241523850e+01 -4.4730648109145905e+00 -1.4807972691571306e+01
12 1.9419997980189923e+01 8.9234158521353670e+00 1.5411102765268724e+01
29 2.7077747712415150e+01 -1.5821415891720486e+01 1.9351206236058822e+01
52 -8.8016764994367840e+00 1.2037448870002019e+00 5.8045143177969862e+00
95 1.2452754362838766e+01 -1.9976959602789683e+00 6.4012869160876216e+00
94 1.4330608478535167e-01 2.2717000876296041e+00 -1.1290451464578923e-01
1 1.3605327079517848e-01 -2.0093283478072919e+00 -1.2269950169387047e+00
2 -3.8622830951430039e+01 -6.0285922748162974e+00 -1.9592127456153293e+01
135 -1.1993934641706783e+01 -1.4119262246701908e+01 -3.3454846341989743e+01
75 3.2867149566743246e+00 2.5210507184479280e+01 -7.1343806105885763e+00
174 4.0822345849747235e+00 -8.2207033001599450e-01 7.0876708124535845e+00
30 -5.1648949880046455e+00 2.8792667620996060e+01 6.7537314321504569e+00
73 2.6013155098650307e+00 1.3369629566168113e+00 -7.5917693887750364e+00
144 -6.2849549977683932e+00 1.4232307283832624e+01 6.5518105001580906e+00
53 3.6251788715110905e+01 6.4099908053329235e+00 2.2542512851988416e+01
44 5.2309856734164581e+00 1.6705589588798347e+01 -8.2972164358547964e+00
45 -2.1341544190023146e+01 4.6427870042383486e+00 2.0789605759843055e+00
43 -7.6286521632848903e+00 -5.2397602671379424e+00 1.2233574541932237e+00
172 -5.5429565203937141e+00 3.0065248435986347e-01 8.1358617077124009e+00
173 1.8721698321865234e+00 5.1607037768648678e-01 3.3782000047329248e+01
62 7.0951957588112657e+00 -6.2530402178554345e+00 -9.0175047271515467e+00
61 5.4506474493381161e+00 -2.2926313330627002e+00 1.4273117365307788e+00
63 1.5269208928891025e+01 -1.7628476862909135e+01 -5.8760865823234605e+00
9 1.0307303781367546e+01 3.4218581424551466e+00 2.5427649930851928e+01
96 1.4174637421102558e+01 2.2331161587052639e+00 -8.6764817600234281e+00
80 -4.8921755571210284e+00 -2.0054853894247305e+01 8.7550515776357274e-01
127 -2.7301178371028993e+00 -3.1842692114688980e+00 5.1766356946778547e-01
105 8.6317535981795697e+00 -2.4453658352105563e+01 -1.3046496707144231e-01
128 1.8660816372761090e+01 7.1562635201872666e+00 -4.3084126746720237e+00
79 3.3541710483659428e+00 -6.4645672710220827e+00 -5.5018636846158255e+00
57 3.0307218970851022e+01 2.8550596556714385e+01 8.0591373857914466e+00
100 -4.2222765144110710e+00 3.1720966324756330e+00 -6.6084188320001835e-01
102 -4.7947499275912051e+00 3.0809604547057198e+01 2.4127685167498878e+01
74 -1.8653863814016997e+01 -1.4362760174389736e+01 1.6381459910848783e+01
91 -2.8562932747276824e+00 3.1503046837572368e+00 -1.3987944149260869e+00
5 -1.7479440938092964e+01 -1.6306257434474439e+01 -4.6208517449903033e+00
6 -2.5583155300101087e+01 -3.4820856781334257e+01 -5.1507154169380334e+00
21 -2.8057713292536146e+01 7.3859185123266125e+00 -3.7883870011113374e-01
19 -5.6578775793776863e+00 2.7542652055060737e+00 -2.9308845657652755e-01
20 -1.7648651114927841e+01 -1.3726037127842345e+01 1.6658241007529593e+01
66 5.2475665766740978e+00 -2.6187339751540677e+01 -2.2991949227632780e+01
147 7.1741022340528504e+00 4.1416596968524502e+00 4.5828794161400294e-01
101 3.1710364923356540e+00 2.1571795734594703e+00 2.1694082625011827e+01
65 4.3733516641215386e+00 -2.2014722199916832e+01 8.9879055279057170e+00
64 -1.2509597449896741e+00 -2.7593224963828629e+00 -6.1110773823138818e+00
150 1.6215460223211771e+01 -1.4049675330656235e+01 -8.3623260053344488e+00
81 5.9568455361113877e+00 -3.9653380271659442e+00 5.8042060267082727e+00
55 -4.4083968826361817e+00 3.6628418658358681e+00 6.1243737177949580e+00
84 -5.5747492758186912e+00 1.3913073440643284e+01 -1.3558392736917559e+01
151 -1.1555663454353398e+01 -1.6840051652932390e-02 -1.6092936230496843e-01
34 -6.6898924656507286e-01 -3.9172893310528707e+00 -1.9641262391532925e+00
141 -2.2999700641533074e+01 6.0016732888724249e+00 6.3613807380468582e-02
177 1.1659091053131339e+01 -3.4126584625289624e+01 5.2100637349809356e+00
139 3.8057784878195702e+00 5.1701718137557471e+00 -7.0095888908920279e-01
35 -7.2522026017157426e+00 5.0630813836830324e+00 6.1884910690948924e+00
146 5.4779267906935090e+00 8.0871169078032921e+00 3.0123823704017885e+00
7 5.4219719614153383e-01 -2.6724001740675409e+00 7.0012955654189313e-01
8 -5.8888795832152194e+00 2.6230440426829468e+01 1.8343371718737213e+01
155 3.2318121317649573e+00 1.5805432929508934e+01 -1.7986584061778185e+01
154 -1.9402166200689110e+00 -1.4584694353557697e+00 5.4423344681272825e+00
108 3.2217390587873922e+01 1.5672094982137809e+01 2.5831503046807992e+01
138 -1.0851587587886447e+01 -5.3060346545309951e+00 -4.3654645125524383e-01
37 4.1748134741943872e+00 2.3308006964644203e+00 6.3274229575806062e-01
190 -6.6180523753210074e-01 -7.4023902513002748e-01 8.6822908072820670e-01
39 1.1797891643445514e+01 7.1468708970506443e+00 -8.7489845451773078e+00
98 -6.8443411904536653e+00 -1.1954131357149764e+00 1.3259587980416798e+01
191 1.6906375535165054e+01 9.2301829961746744e+00 1.2481763260299658e+01
192 1.1599155637845142e+00 -2.1739811405430419e+01 5.3915465324186727e+00
54 -2.6122672241948713e+01 2.8158910506448546e+01 -2.6269693678944694e+00
152 -2.4103285563809450e+01 -1.3790214736842461e+00 1.5705587923996466e+01
28 -2.3443168079374779e+00 1.4777316501407418e+00 9.1779407834117865e-01
183 3.9226277687353367e+01 1.2945372958254820e+01 2.8734134479580895e+01
181 9.0912782176185059e-01 -1.3582322504951327e+00 2.9238035369925566e+00
119 8.5420268476299244e-01 -1.1926598445078122e+01 3.0929677999046929e+00
182 -3.6025507022874052e+01 7.3252214556227289e+00 -5.0438084887304679e+00
49 2.9168784737759648e+00 1.9268336167693689e-01 3.3378571910618433e+00
118 -2.6053464386753773e+00 -1.3826119008160114e+00 3.8666733711687824e+00
120 -1.4712626317469143e+01 1.3552732569787084e+01 -7.5953175459878208e+00
104 -1.3795864623553828e+00 1.9208373193431957e+01 3.9209629553042573e+00
103 -1.6849205063896457e+00 -1.3974819765678019e+00 5.4957043041780596e-01
165 4.0036736320738342e+00 -2.4428884035779159e+01 9.5521947905120079e+00
129 3.1919076573331218e+00 4.4151184215796500e+00 -1.0878114459304447e+01
111 8.7812548897083715e+00 -7.9401728581450843e+00 1.6488339521246967e+01
109 1.6408043528226530e+00 -2.3726881519780418e+00 -1.2568940013733605e+00
32 -7.9802892618478161e-01 -3.8766091439335093e+00 -1.1712659450769889e+01
163 2.9365970408989326e+00 4.6585617350802027e+00 -3.5040632156243299e+00
31 4.6613039301989216e+00 1.3420680141324632e+00 4.2646281277646043e+00
169 8.3049533946219700e+00 -4.2197997405055521e+00 -2.2876106697089580e+00
99 -1.6751388489236138e+01 4.9726695456932168e-01 -8.0341643328673733e+00
170 1.9372792569436598e+01 -1.6690167552017151e+01 -5.4157001503471038e+00
110 -3.5313525204956303e-01 -2.1096548420606496e+01 2.1365837276366072e+01
33 4.8939791528772689e+00 1.0509373077483215e+00 -2.9272806561189162e+00
50 -2.0266971095023525e+01 -4.3502338064876511e+00 -1.3421247478919787e+01
27 -1.1012195906373982e+01 -2.6696763226802013e+01 7.5652796050968698e+00
189 -2.1146426406210217e+01 -6.8440966613932890e+00 5.8386282112873280e+00
85 -3.1694530261850740e+00 -1.0462463389084491e+00 4.5816143842543129e+00
87 -1.6510078760426592e+00 1.5241486467544895e+01 5.2257350215835139e+00
187 -2.4191366867563446e+00 1.6230624565970433e+00 -3.8086681630472747e+00
188 -1.5568600914060380e+00 -8.0987784143890291e+00 -1.1660116366512532e+00
4 -9.5842200266554531e+00 -1.2981993800280958e+00 -8.2472214586070098e+00
86 1.9026513612970906e+01 -8.6388081883535772e+00 -1.0077830876850047e+00
145 5.3775609567611982e+00 4.0989536381444855e+00 -3.3934649827217425e+00
123 -2.9779141650052536e+00 1.9881673824351267e+01 -4.0177779880546911e+00
36 1.1391735015928749e+01 2.3700227802780628e+01 1.2850196660337469e+01
167 -9.8645259232908362e+00 -3.8736496660714592e+00 -2.0189790000435206e+00
137 -1.7279343891317382e+01 -2.0526767349030440e+01 9.6854452699175582e+00
148 7.7681378067922441e-02 -7.7969073528240340e+00 1.4303570274141146e+01
149 -1.7162294641613144e+01 -4.6799495727201137e+00 3.3252661752261430e+00
41 -2.1939596113136329e+01 -5.8063871592103933e+00 -1.6254697924093737e+01
40 1.0766988058496697e+01 -3.0884744702298610e+00 -5.2060570355238669e+00
42 5.4724942521287834e-01 2.5411571398776855e+00 1.4964195764366455e+01
168 -1.9161029274876576e+01 -1.1649853257671444e+01 -4.6343749332661082e+00
166 1.0864051809848512e+00 2.4859811638002101e+00 -2.2165568057012277e+00
131 2.3434673822850542e+01 -4.8126225927509365e+00 1.6197811263380576e+01
180 1.1127628373543914e+01 9.4132650980366286e+00 3.7064288496426393e+01
126 7.5878617889169081e-02 -8.8760423509213062e+00 -1.9388605870953732e+01
51 2.9480596183739728e+01 3.0362900520562426e+00 -2.6059984612467588e+01
48 2.2278480212320069e+01 -2.0593154396925996e+01 1.2597661475576460e+00
25 -3.0964493802865602e+00 7.1245209695322542e-01 -5.4879784818719335e-01
130 3.1631278167757908e+00 6.5547058772425135e+00 9.2419852114860224e-01
77 2.1082547934143335e+01 -2.6625099342857766e+01 2.0899211924257553e+01
76 3.2173038534857077e+00 1.1158052098182567e+01 -6.8169573710266207e-01
78 1.6300385666731252e+01 2.2985404092323122e+01 -5.0812220009898752e+00
26 -2.6836321597598413e+01 -1.4797614806431124e+01 9.0996594583294907e+00
47 -4.5173814341325293e+00 7.3327950719236465e+00 2.2042705198116543e+01
171 1.0888191806252431e+01 -9.9447688518386546e+00 -1.7511394529909293e+01
97 -1.8173954707008413e-01 7.7420247841182848e+00 -5.7512942922855057e+00
113 1.2519751067081228e+00 -3.4124361138809975e+00 -1.7593874589133588e+01
114 8.8399882046444276e+00 1.3165247616235467e+01 3.4526060441855613e+01
46 3.3787012226101804e-01 1.0320303991319957e+01 4.3350977679299714e+00
176 -2.3068469178368193e+01 -2.1103052476293489e+00 -1.5257441614193004e+00
175 -4.0259092123631195e+00 -5.5085283997180268e-01 -9.6834254479409343e-01
153 -4.0418343624794852e+00 7.6074295593412371e+00 -7.9318938859413350e+00
134 -1.3012253310820221e+01 9.3487424631309590e+00 -2.3821303511898195e+00
178 2.3523106705422059e+00 4.9322169776662124e+00 -2.4694672070197323e+00
132 6.3070869755703081e+00 -1.0621933159691240e+01 -5.5301413286849392e+00
159 2.1834241933672156e+00 -2.3185368900352756e+01 7.4894520818786843e+00
158 8.7499318121537382e+00 6.7561052172185212e+00 3.2252197603016540e+01
157 -3.8390776230669070e+00 -5.0435498137425778e+00 -2.7596200356340277e+00
179 2.7890840501185079e+00 -1.2376024763326718e+01 1.0404496647588978e+01
106 -4.0246434650778697e+00 -1.1433074103583412e+00 -1.5252241930133479e+00
133 7.6457074328605348e+00 -9.2631543885481793e-01 -1.0768441088448568e-02
107 -8.8719712477335335e+00 -1.4736254301166117e+01 1.8420941251755365e+00
162 5.4506070138964677e+00 -2.0728121935879438e+00 8.3593734571118805e+00
161 -2.0896412402734064e+00 6.2971691933508120e+00 6.4993164744367009e+00
160 9.0373936198390514e-01 2.9882569737022346e+00 -5.6274260356427126e+00
164 1.5715260540185355e+01 -7.4220392080286652e+00 2.9483086058054187e+01
11 -1.7499113131953052e+01 -2.1725965789825472e+00 2.4918926997116944e+01
10 -2.3765581045823434e+00 -1.6759978634866157e+00 -9.6343564169283606e+00
117 -1.5973467984767572e+01 -1.0917150357827623e+01 -1.4542205901656898e+01
60 -1.0372190502590234e+01 -1.0471450476214594e+00 6.0674313049396584e+00
115 2.9538483421969488e+00 -1.8180283983455829e+00 -2.2653369146250610e+00
116 -3.9812273262222682e+01 1.2150678432060577e+01 3.4502041277305984e+00
88 -4.4376671179168836e+00 -7.9954870601774708e-01 -6.4476610626879252e+00
3 6.6260950637888607e+00 -6.1824281716941929e+00 -8.5775667634173791e-01
14 7.7999281650138945e+00 -1.2885312073333058e+01 -1.3577063736389515e+01
15 4.9019329276520676e+00 9.3894596800778907e-01 1.0630270170269242e+01
13 2.4696738030048055e+00 1.1585784053172969e-01 -2.0844106725113845e+00
156 -1.3105519348089699e+01 7.8456790830276069e-01 -4.8487353105387392e+00
185 -4.2283473476645392e+00 -1.4037332398273010e+01 -2.6117977952098173e+01
184 3.6924016623467093e+00 9.0931429079368780e+00 5.0830923715766572e+00
186 1.6402391384977982e+01 -1.5193949881396676e+00 -2.8730806691946558e+01
22 7.4623544232662509e+00 -1.8658762537659401e+00 -1.7014014567013023e+00
121 -2.5520889789392952e-02 -2.7418495082925403e+00 1.4488896018311594e+00
24 -5.8608174463181744e+00 3.4087461320282188e+01 -1.2931048832245025e+01
68 1.5961572538169959e+01 -4.0619166102122133e+00 -1.8527549928430375e+01
23 -1.1930194164321344e+01 1.3612283821943327e+01 -1.4814959069697032e+01
122 -6.5626237595916015e+00 -2.1123520786782215e+01 -2.1869855998289985e+01
82 4.0466705608759534e+00 3.9880864859089691e+00 4.8211658544528415e+00
83 8.3941050645555801e+00 7.3529049453074808e+00 1.4969135733745231e+01
89 -3.2558248688062230e+00 2.1715244225863422e+01 -1.2116065037877043e+01
67 6.9630849328014044e-01 -1.1371263965452125e-01 5.3794707795754775e+00
56 -2.4306782773819918e+01 2.4094730901091488e+00 -1.7033697947476551e+01
90 2.5660718908222485e+01 -8.3631284504812093e+00 1.2855199447268449e+01
69 6.6244073995729036e-01 -1.4540424348323601e+01 -3.8970292522670427e+01
