LAMMPS data file via write_data, version 2 Jun 2020, timestep = 2000000

192 atoms
2 atom types

0.0 12.6405 xlo xhi
0.0 12.6405 ylo yhi
0.0 12.6405 zlo zhi

Masses

1 15.9994
2 1.00794

Atoms # atomic

44 2 2.3539059794164061e+01 2.2277000723151613e+01 1.7334552678610201e+01 1 0 0
62 2 2.1059156582102965e+01 2.0362396027338875e+01 1.5705207021237324e+01 0 1 0
45 2 2.2664169338398938e+01 2.0873314767665473e+01 1.7306121794442870e+01 1 0 0
142 1 2.4687446010236123e+01 2.3050725323854415e+01 1.6138239430644358e+01 0 0 0
53 2 2.5460532752157405e+01 2.1859261478087991e+01 1.5241442396323263e+01 0 1 0
54 2 2.5678891863784944e+01 2.0761063568402257e+01 1.4076657753393569e+01 0 1 0
52 1 2.6147371539721380e+01 2.1399546347102181e+01 1.4691752998535083e+01 0 1 0
143 2 2.4339716969778003e+01 2.3521174720850574e+01 1.5362379233548310e+01 0 0 0
144 2 2.5409632397424303e+01 2.3622709802390958e+01 1.6485673716699818e+01 0 0 0
61 1 2.1592235355147526e+01 1.9979850192867239e+01 1.6401087066052391e+01 0 1 0
110 2 2.2773539242444976e+01 2.3868187214954720e+01 1.3531653821874285e+01 0 0 1
37 1 3.2113405298879997e+01 2.1265872644322712e+01 1.4277159377472106e+01 0 0 0
18 2 2.7162994705330519e+01 2.0246754782083993e+01 1.5778416944832562e+01 -1 0 0
38 2 3.1513294189451742e+01 2.1699342315720369e+01 1.4908034301374805e+01 0 0 0
139 1 3.0606015643796614e+01 2.2687894305326722e+01 1.6154623147072272e+01 0 0 0
141 2 2.9966960210300474e+01 2.2186211404860501e+01 1.6640928169281757e+01 0 0 0
137 2 2.8788543641409643e+01 2.0620401644570595e+01 1.7823428918996218e+01 0 0 1
140 2 3.0072672525236982e+01 2.3414247576987187e+01 1.5622310530083322e+01 0 0 0
39 2 3.1559646040089245e+01 2.0520287512564956e+01 1.3985950960475320e+01 0 0 0
47 2 2.8592948498726173e+01 2.3906593872086511e+01 1.3957679681558322e+01 0 0 0
16 1 2.7859690943964171e+01 1.9770167458508464e+01 1.6310835945877642e+01 -1 0 0
32 2 3.1497327982943396e+01 2.3669634564561850e+01 1.7152007507771369e+01 0 0 0
5 2 2.7270979768677403e+01 2.2468645562742324e+01 1.3796838451021253e+01 0 0 0
109 1 2.3302582085843223e+01 2.4362711203684746e+01 1.4204704767447666e+01 0 0 1
13 1 2.1019955739761706e+01 2.5836542558210922e+01 1.5213713974040289e+01 0 0 1
15 2 2.1771891289752109e+01 2.5359329224258563e+01 1.4845438194819408e+01 0 0 1
111 2 2.3844264446250001e+01 2.4966836047249362e+01 1.3613271954680851e+01 0 0 1
101 2 2.1435119653546614e+01 2.7301605166748949e+01 1.5495038284951852e+01 0 0 1
9 2 2.0428923459007965e+01 2.4927671071942466e+01 1.6616020943067827e+01 1 0 0
14 2 2.0281985244957976e+01 2.5709815616245415e+01 1.4584584412625597e+01 0 0 1
166 1 2.3520487078328308e+01 2.8202333124848359e+01 1.7731110745786214e+01 0 0 1
175 1 2.5852983267392538e+01 2.7443767029232330e+01 1.3909243466661305e+01 0 0 0
157 1 2.5969616259967040e+01 2.4891494806247149e+01 1.7780500617106846e+01 -1 1 0
102 2 2.2318462741720385e+01 2.8335895646142312e+01 1.6327334979517872e+01 0 0 1
100 1 2.1667792227732665e+01 2.8223900593337191e+01 1.5633047894419985e+01 0 0 1
46 1 2.9255550756625130e+01 2.4363590572536946e+01 1.4629337245322679e+01 0 0 0
153 2 2.6427432632338732e+01 2.7052725427181844e+01 1.4615731984026153e+01 0 0 0
69 2 2.6849456367776696e+01 2.5819783408345174e+01 1.6467302749077813e+01 0 0 0
67 1 2.7562781353596321e+01 2.6092485825248119e+01 1.5804701191830441e+01 0 0 0
68 2 2.7940669694757723e+01 2.6876520636688657e+01 1.6254740579605354e+01 0 0 0
48 2 2.8726660656112955e+01 2.4994397260358163e+01 1.5073994630466608e+01 0 0 0
11 2 3.0436478134379360e+01 2.4940024589201641e+01 1.3713077315714928e+01 -1 -1 0
28 1 2.8810037495143902e+01 2.8284096418713187e+01 1.6991672979037119e+01 0 0 0
31 1 3.2098281354122278e+01 2.4404481793322290e+01 1.7433500783228304e+01 0 0 0
168 2 2.4241475811311783e+01 2.8427463457309937e+01 1.7076483143114928e+01 0 0 1
63 2 2.0979300787946034e+01 3.2522943272113963e+01 1.7006065818541192e+01 0 0 0
118 1 2.3314734900918761e+01 3.1189626765585793e+01 1.4598387263433201e+01 0 0 1
120 2 2.2658759210237932e+01 3.1451203697913975e+01 1.5260285040009974e+01 0 0 1
119 2 2.2868145626100006e+01 3.0535103242284002e+01 1.4091130520289797e+01 0 0 1
90 2 2.4482354832260384e+01 2.9994413023233392e+01 1.5434006201134444e+01 1 0 0
89 2 2.5353469157137244e+01 2.8798457019171700e+01 1.5138972820856493e+01 1 0 0
88 1 2.5058352318048296e+01 2.9331722251464313e+01 1.5865110061582469e+01 1 0 0
24 2 2.5701737657254260e+01 3.0277850855246399e+01 1.6949418849820756e+01 0 0 0
51 2 2.2097247592972565e+01 2.8679167091835712e+01 1.3801116596686478e+01 0 0 0
22 1 2.6194841601041070e+01 3.0784553691271064e+01 1.7706608356927507e+01 0 0 0
72 2 2.4415458074824780e+01 3.2009764739083543e+01 1.3720091200686070e+01 0 0 0
29 2 2.9637791381564345e+01 2.8717860145911917e+01 1.7255674533383232e+01 0 0 0
17 2 2.7314782458569020e+01 3.1982880608487918e+01 1.6755113216594165e+01 -1 -1 0
126 2 3.2111598238723076e+01 2.8898841789737261e+01 1.5986485128871111e+01 -1 -1 0
125 2 3.1758802580005216e+01 3.0154863600451712e+01 1.6781920316276221e+01 -1 -1 0
180 2 2.8943423709087117e+01 3.1312494020278173e+01 1.5503641720782847e+01 0 0 1
131 2 2.9948061857687495e+01 3.0193478655276664e+01 1.5302659578427026e+01 0 -1 1
130 1 2.9283756299219363e+01 3.0733621281276328e+01 1.4814104229041773e+01 0 -1 1
124 1 3.1379676186486236e+01 2.9352612351905528e+01 1.6391149979506345e+01 -1 -1 0
80 2 3.0038910866494533e+01 3.1563073955143025e+01 1.3579575679867871e+01 0 0 0
162 2 2.8131586090425511e+01 2.9520156067161984e+01 1.3759939029903569e+01 0 0 1
43 1 2.3242699784141884e+01 2.1472014664023849e+01 1.7866867727737937e+01 1 0 0
41 2 2.2246391361878409e+01 2.2436440668078337e+01 1.8812055917397689e+01 1 0 0
40 1 2.1719984254383974e+01 2.3166074400565925e+01 1.9276754018034602e+01 1 0 0
42 2 2.1312067484147686e+01 2.3537809408393574e+01 1.8494893669294697e+01 1 0 0
150 2 2.4406812426571761e+01 2.0489589894673816e+01 1.8710667144878482e+01 0 1 0
75 2 2.1187476297695483e+01 2.2215726095110458e+01 2.0883237751341273e+01 1 1 0
78 2 2.6071188737358888e+01 2.2082633527467685e+01 2.1565776996631207e+01 1 0 0
77 2 2.5825000805385066e+01 2.1156492297668187e+01 2.0389261926915058e+01 1 0 0
148 1 2.5177536378719239e+01 2.0096345778839162e+01 1.9184620750764832e+01 0 1 0
123 2 2.2580319090616843e+01 2.4038704880206154e+01 2.0294954260532645e+01 1 0 0
1 1 2.0541067511051882e+01 2.1851978673629791e+01 2.1471087972147263e+01 0 0 0
50 2 2.4176851368182511e+01 2.3256178824177596e+01 2.2004377744356770e+01 0 0 -1
136 1 2.9349324688102055e+01 2.1253074199413597e+01 1.8341586445750568e+01 0 0 1
76 1 2.6528419022038076e+01 2.1678582136523641e+01 2.0841850408481932e+01 1 0 0
135 2 2.7305968541695979e+01 2.2943986978635877e+01 2.0132385283527920e+01 0 0 1
133 1 2.7850653524229710e+01 2.3493611992699083e+01 1.9559564722821115e+01 0 0 1
138 2 2.9806512470317053e+01 2.0741130757869456e+01 1.9042148313088457e+01 0 0 1
134 2 2.8514915291821531e+01 2.2949286508249546e+01 1.9024106221455614e+01 0 0 1
21 2 3.1647389709874140e+01 2.0715045943312209e+01 2.0677439966761323e+01 -1 0 -1
2 2 3.1950858211638327e+01 2.2382999791573852e+01 2.2041310576403102e+01 -1 0 0
19 1 3.1256195322225942e+01 1.9957903991687992e+01 2.0077503636307643e+01 -1 0 -1
113 2 2.7404029607087583e+01 2.0221667724498207e+01 2.1891630781536204e+01 0 0 0
167 2 2.3900814175299978e+01 2.7528227700153671e+01 1.8339719148775121e+01 0 0 1
145 1 2.3095849146543674e+01 2.4363735654833931e+01 2.1065611514946077e+01 0 0 0
65 2 2.4097995235629956e+01 2.5610997713592095e+01 2.0287400710924778e+01 0 0 0
146 2 2.2481574495443553e+01 2.4836494412825868e+01 2.1619396243210581e+01 0 0 0
158 2 2.5457931362689884e+01 2.5402428998195386e+01 1.8412422514245897e+01 -1 1 0
64 1 2.4524920466031386e+01 2.6245270513248485e+01 1.9639660354533191e+01 0 0 0
66 2 2.5095771308145242e+01 2.6893533508299424e+01 2.0153610621185347e+01 0 0 0
147 2 2.1253197926834439e+01 2.8309312562150367e+01 2.2036208629137292e+01 0 0 0
97 1 2.5879373676723489e+01 2.7919052644310892e+01 2.1395947260237776e+01 -1 -1 0
36 2 3.1957469319399571e+01 2.6124569911151109e+01 2.0096355379703120e+01 0 0 0
8 2 2.8524027598070756e+01 2.4427445619145921e+01 2.0583612854824761e+01 -1 0 -1
159 2 2.6577445809142695e+01 2.4306085071725285e+01 1.8279050431453076e+01 -1 1 0
82 1 3.1244428201071276e+01 2.6114233497066220e+01 1.9396839947381736e+01 0 0 0
83 2 3.1469104922361680e+01 2.5425939399191758e+01 1.8742801779526513e+01 0 0 0
33 2 2.9763717547011318e+01 2.5433903125921212e+01 2.0622735846819769e+01 0 0 -1
7 1 2.9156837665133622e+01 2.4980698117620822e+01 2.1239315953293893e+01 -1 0 -1
174 2 3.0536930735009346e+01 2.8094861357552233e+01 1.9534704048001881e+01 0 0 0
98 2 2.6485212868231695e+01 2.7405224188098085e+01 2.1934267173595842e+01 -1 -1 0
30 2 2.8379153458980838e+01 2.8238713787564514e+01 1.7885271380826907e+01 0 0 0
121 1 2.0864556853950042e+01 2.9212193017337661e+01 2.1934216334464800e+01 0 -1 0
81 2 2.0809712867380629e+01 3.0889309393832725e+01 1.8736290525619133e+01 1 0 0
171 2 2.5302303424419065e+01 2.8366704888491824e+01 2.2071641985224318e+01 0 0 0
105 2 2.3950126589178396e+01 3.2060086555393781e+01 2.0548082992054141e+01 0 -1 0
59 2 2.2523624382364510e+01 2.9064622807480756e+01 1.8768515942727834e+01 0 0 0
58 1 2.1927081553752078e+01 2.9647451921210745e+01 1.9239135155189455e+01 0 0 0
12 2 2.2431730255968276e+01 3.0204227673878179e+01 1.9866403474498355e+01 0 0 0
127 1 2.3260043870034693e+01 3.1501515166290172e+01 2.0951223341593835e+01 0 -1 0
128 2 2.2697800473574123e+01 3.1890964099606933e+01 2.1643958269755792e+01 0 -1 0
149 2 2.5518129195594931e+01 3.2264377813243698e+01 1.8560793890886192e+01 0 0 0
122 2 2.0638513490173349e+01 2.9098252440653408e+01 2.0996047956224217e+01 0 -1 0
152 2 2.3950257214759830e+01 3.0172497733804072e+01 2.2148271492652409e+01 0 0 0
172 1 3.0908806187404572e+01 2.9010071931662143e+01 1.9588828357992657e+01 0 0 0
55 1 3.2112070196891437e+01 3.1451669879064820e+01 1.8173881183306804e+01 -1 0 0
173 2 3.1499213582093716e+01 2.8954458876171753e+01 1.8796437275563513e+01 0 0 0
23 2 2.6476321483708023e+01 3.0158084888074779e+01 1.8396743945526943e+01 0 0 0
86 2 2.8121375176333750e+01 3.0142725755068604e+01 2.0142835878877207e+01 0 0 0
87 2 2.7134532624583894e+01 2.9009868418473047e+01 2.0466647984607803e+01 0 0 0
85 1 2.7505470903926721e+01 2.9528366935293114e+01 1.9709274929260214e+01 0 0 0
132 2 3.0234367519527492e+01 3.0043815578296687e+01 2.0621328302559586e+01 0 0 0
20 2 3.0780549270219851e+01 3.2129036882498852e+01 2.0533759690620769e+01 -1 -1 -1
56 2 3.1850060252187930e+01 3.2043065194975803e+01 1.8915564634899958e+01 -1 0 0
178 1 2.9671000262555999e+01 3.0606981007750409e+01 2.1200471449836815e+01 0 0 0
179 2 3.0057609375925807e+01 3.0335883959957471e+01 2.2064661158903544e+01 0 0 0
114 2 2.8497483895117881e+01 3.2053178753470142e+01 2.2136729073831813e+01 0 -1 0
95 2 2.1459028704995010e+01 2.0602581199675694e+01 2.2639655377819771e+01 1 1 -1
189 2 2.1112358608832118e+01 2.2592229731517406e+01 2.6108298667684188e+01 0 0 0
187 1 2.1690751216829842e+01 2.3118729058963972e+01 2.5558451735362794e+01 0 0 0
184 1 2.3487651998842558e+01 2.1092458701533332e+01 2.4505611038515330e+01 1 0 0
185 2 2.2848024876712181e+01 2.0465242016183691e+01 2.4174262209144025e+01 1 0 0
186 2 2.3999908759293639e+01 2.0568284139202699e+01 2.5201759066379328e+01 1 0 0
188 2 2.2365228205821353e+01 2.2520920174368772e+01 2.5202072500863707e+01 0 0 0
49 1 2.4888774633949705e+01 2.2964836576386528e+01 2.2691370141605152e+01 0 0 -1
27 2 2.4426914426533482e+01 2.2318637188165649e+01 2.3305954557693653e+01 1 0 -1
94 1 2.1931032943243334e+01 1.9790797975659594e+01 2.2836595675840460e+01 1 1 -1
192 2 2.5910760902163556e+01 2.3979758855375394e+01 2.3528334243474404e+01 0 1 0
155 2 2.9983844729725369e+01 2.3491529550182662e+01 2.2672683561440497e+01 -1 0 0
4 1 2.7687119638154662e+01 2.2966887770068070e+01 2.6163832965670508e+01 0 0 -1
165 2 2.8706483715749400e+01 2.1605926381035374e+01 2.4956615063680186e+01 -1 1 0
164 2 2.8498239894235940e+01 2.0553637002682482e+01 2.3841483731338496e+01 -1 1 0
163 1 2.9138772071027432e+01 2.0887222410926412e+01 2.4492757135303442e+01 -1 1 0
108 2 3.0219492184655419e+01 2.2192058512539127e+01 2.3441267540355586e+01 -1 0 0
154 1 3.0659566890476029e+01 2.3052309499768686e+01 2.3220711992804727e+01 -1 0 0
57 2 3.0151632444782528e+01 1.9915025704084979e+01 2.5599474474954199e+01 0 1 -1
6 2 2.7071371076591625e+01 2.3305382378045564e+01 2.5443235824269646e+01 0 0 -1
169 1 2.0802943621271353e+01 2.6103129703226188e+01 2.2442868567808748e+01 0 0 0
99 2 2.1473171010652955e+01 2.6395157786725633e+01 2.3036432792091752e+01 0 0 0
107 2 2.3367896405186372e+01 2.6557554274270256e+01 2.4523971459284386e+01 0 -1 0
106 1 2.2652050559503365e+01 2.7095137010230729e+01 2.4166098801717617e+01 0 -1 0
156 2 2.3048620930892923e+01 2.7443878397892846e+01 2.3422333243364616e+01 0 0 0
73 1 2.4641949560515769e+01 2.5743226121443982e+01 2.5426665587502438e+01 0 0 -1
74 2 2.5299723715559981e+01 2.6279973178980782e+01 2.5974600690971268e+01 0 0 -1
3 2 2.5172805719470027e+01 2.5096091831584996e+01 2.5004638680259784e+01 0 0 -1
176 2 2.6540164044741744e+01 2.7906619616213860e+01 2.6477864587971929e+01 0 0 -1
170 2 3.2147351515760839e+01 2.5497794749683528e+01 2.2896581540226858e+01 -1 0 0
117 2 2.8273879810998771e+01 2.6035229799873797e+01 2.2270582693963728e+01 -1 0 -1
190 1 2.6643891490294259e+01 2.4385937888569952e+01 2.4004587456283630e+01 0 1 0
191 2 2.7092522682475554e+01 2.5106164678887133e+01 2.3508107384824019e+01 0 1 0
115 1 2.7683170641965567e+01 2.6491854852079012e+01 2.2915797946659559e+01 -1 0 -1
10 1 3.1115914039097390e+01 2.5479848199779180e+01 2.6379891985483333e+01 -1 -1 -1
116 2 2.8257478069849867e+01 2.6834009583624219e+01 2.3600515685716459e+01 -1 0 -1
60 2 3.1615188756570099e+01 2.4825265608584143e+01 2.5852683680027702e+01 -1 0 -1
104 2 3.0121129617416479e+01 2.6812727253921242e+01 2.5344222574873495e+01 -1 0 0
103 1 2.9572010866469171e+01 2.7430799347042374e+01 2.4887045641451728e+01 -1 0 0
129 2 3.0178602909372671e+01 2.7784308336546168e+01 2.4222417864360068e+01 0 0 0
70 1 2.4851354310689342e+01 3.2631876862843242e+01 2.6110979268364680e+01 0 0 -1
151 1 2.4240242100745622e+01 2.9444497726417829e+01 2.2672978959819044e+01 0 0 0
26 2 2.2463009039890011e+01 2.8600391721210322e+01 2.5424390859585532e+01 0 -1 -1
96 2 2.1502486799433157e+01 3.2195463403794378e+01 2.3521225054253016e+01 1 0 -1
25 1 2.2103820661527319e+01 2.9209819352539114e+01 2.6102814960351687e+01 0 -1 -1
84 2 2.1382557870907696e+01 3.0577516178324665e+01 2.5310934956630735e+01 1 0 -1
71 2 2.5281560738584016e+01 3.2020526734355578e+01 2.5500201605530986e+01 0 0 -1
177 2 2.4833447148701314e+01 2.9872623753694434e+01 2.3284008563195421e+01 1 0 0
34 1 2.1007471867665700e+01 3.1474703682682353e+01 2.4998782838133749e+01 1 -1 -1
79 1 3.0633563559840233e+01 3.2198580463753771e+01 2.6161098546448176e+01 0 0 -1
112 1 2.7720044896707755e+01 3.2493163211819173e+01 2.2531409979042291e+01 0 -1 0
35 2 3.2082731201247540e+01 3.1784226295931425e+01 2.5447140740965818e+01 0 -1 -1
181 1 2.6217477610203400e+01 3.0947623005659544e+01 2.4309341109586210e+01 1 0 0
182 2 2.6738261564271266e+01 3.1374102074483492e+01 2.3601289921658278e+01 1 0 0
183 2 2.6830061453457926e+01 3.0371939525249143e+01 2.4877074736386565e+01 1 0 0
160 1 2.7742717002632816e+01 2.8984909517997622e+01 2.6110105189922571e+01 0 0 0
93 2 3.1485712090210264e+01 2.9301138621925531e+01 2.2994642141585743e+01 0 0 0
91 1 3.0787159341547522e+01 2.9789536062569937e+01 2.3531168865478655e+01 0 0 0
161 2 2.8504900341423216e+01 2.8527759415888845e+01 2.5719598573985735e+01 0 0 0
92 2 3.1207670342102560e+01 3.0477215524120680e+01 2.4088565399382524e+01 0 0 0

Velocities

44 -2.4429737357537796e+01 -9.1672314543506008e+00 5.8397295327744549e+00
62 -2.2859083608863799e+01 3.9176647281160612e+01 4.6891911036161469e+00
45 -1.8229450365073088e+01 -1.3150067912118513e+00 -6.5526267760254404e+00
142 3.4239888765528315e-01 -8.0607186903128403e-01 -3.4335462116229953e+00
53 2.5523171245068539e+01 -9.2691601642099031e-01 -1.3625185542730380e+01
54 -2.4877648204027480e+01 6.6428282025346896e-01 -1.5556846234276446e+01
52 -1.4364807723355770e-04 1.0183609108322789e+00 -3.6933303605563474e+00
143 4.6951765971160730e-01 1.4262174469899341e+01 -2.7277454559807417e+01
144 2.3021881800661026e+00 1.4438223254236263e+01 3.4986614950279403e-02
61 4.1023234688699439e+00 -4.1059899152158916e+00 -2.2842372348875766e+00
110 -9.9654358775062004e+00 7.2513555575967485e+00 -4.1909515409014276e+01
37 3.4723887473959882e+00 -7.5773734084481879e+00 3.6545477668467163e+00
18 -4.7283765296515705e+00 -2.8990352856315823e+01 -1.5404426123070620e+00
38 4.5236552736327171e+00 -1.2095856709055093e+01 -1.3640707823774537e+01
139 3.9563031798200372e+00 -2.7044712721793602e+00 1.0125208936150019e+01
141 8.3698313876308745e+00 2.2416384836738732e+01 -1.5910227084658471e+01
137 -5.7640176287293929e+00 -4.0402022334509248e+01 4.0585929258168640e+00
140 3.3643704188360815e+01 -6.2410460655008348e+00 -9.9791707174846085e+00
39 1.6954104687753485e+01 5.2182874023718142e+00 -3.2404973729253022e+00
47 -5.1596767824030580e+00 3.8943206675811397e+00 1.9531121712381498e+01
16 1.9991415254455209e+00 -4.4664853810288605e+00 5.2075091437376209e+00
32 8.0529477858211607e+00 -7.9219538161176963e+00 2.3751851010250107e+01
5 -6.1057180241446947e+00 1.6894558232823329e+01 -1.7008170873864760e+01
109 -6.5235873871020789e-01 -6.6137516120899287e+00 -2.1153384447641033e+00
13 2.4230005834385300e+00 8.7258796652681045e+00 -5.3990205826549298e+00
15 2.9902507220368366e+00 6.2418619218240412e+00 7.0106241840187842e+00
111 -2.3605699852189449e+01 5.0747897728277813e-02 -3.0521673495620705e-01
101 -1.3746255768705891e+01 1.8504549261807753e+01 1.7685983204691787e+01
9 -1.7308198237806218e+00 -1.6723085359881782e+01 1.9810920338262898e+00
14 4.6788398528289283e+00 -4.8930185786602980e+00 -3.5379420903430896e+00
166 -3.2489858835180185e+00 2.8230001180322675e+00 5.0224421128727332e+00
175 3.6511794218179281e+00 -1.5523968482223043e+00 2.6787312389713125e+00
157 3.1926958314409243e-01 -4.7291997473051234e-01 -2.4517314398807177e-01
102 -1.1629347363937429e+01 6.4203521044495480e+00 -2.5166381633228429e+01
100 3.7331183372537677e+00 4.0817848873787055e-01 7.8291867131089763e+00
46 3.0896674041553815e+00 6.6013070369601703e+00 -1.9036478608094745e+00
153 1.6157950812555139e+01 6.8421021267433799e+00 -3.9038689756043059e+00
69 1.2203089341608090e+01 1.5112906603791743e+01 -9.7970119462012430e+00
67 -4.9967670273114448e+00 -1.1037389275710145e+01 -3.4709363743019170e+00
68 4.3169729099830096e+00 -1.0130641274199357e+01 2.5050701883899201e+01
48 3.8800074767260284e+00 1.8981689553508602e+01 7.1610051221784525e+00
11 8.3854426997584888e+00 -2.2668095702004869e+01 -2.9611267569736388e+01
28 7.5562591364707430e+00 -2.4873524515349010e+00 6.4972285961363383e+00
31 -1.4823428484938697e+00 3.2689649402848304e+00 2.0628485068027672e-03
168 -2.9069943883942940e+01 4.6800257661578977e+00 -2.5097930459552291e+00
63 -4.1257106492444855e+00 5.4545491678704341e+00 -2.5413926951524378e+01
118 -3.7968977281801397e+00 5.3081303797261423e+00 5.1405016499446692e+00
120 2.1673964824994898e+00 -2.2993905174574147e-01 -2.8624796322853648e+01
119 2.6840431111801614e+01 5.1736234386887769e+00 3.3548933274001982e+01
90 -1.5325513995486624e+01 1.3960418555682079e+01 2.6790621730472722e+01
89 -1.3586041348280486e+00 1.8367796100579561e+01 8.7661021655451030e+00
88 -9.9625593359771187e+00 -1.0905138326094241e+00 2.0056360603578267e+00
24 1.3877535525859193e+00 -1.2244074926485879e+01 -1.6373711921093339e+01
51 1.1607097690155376e+01 8.7646132448591807e+00 -2.6995438374729666e+01
22 4.5985296708428253e-01 2.1130001491488053e+00 4.5483037405204774e-01
72 -2.4572625069560040e+01 7.3948272966669366e+00 1.5523185971201377e+01
29 1.3327016157155928e+01 2.0178359462781707e+01 2.0130204048260802e+00
17 -1.1529496383846668e+01 1.0432913155291750e+01 5.8292966771966919e+00
126 -1.5305081688783343e+01 1.4962998450613981e+01 -4.0531368806226888e+00
125 4.0853166974828650e+00 -1.7039864210130819e+01 1.7172692170643469e+01
180 -1.2401647936984883e+01 -8.5457721417463208e+00 1.4244830493951865e+01
131 -3.9980001877378712e+00 -4.0293651877252735e+01 -2.9001198442209564e+00
130 -4.8609269717185910e+00 -2.9336940867496182e+00 -4.7272663051549859e+00
124 8.0200168776742498e+00 -4.0236559707383091e-01 -2.3068974819679728e+00
80 3.2638215233511630e+01 1.8916035863664543e+01 4.4306563134779102e+00
162 1.7721235324774385e+00 -4.6631148238768558e+00 1.4229920239942398e+01
43 5.2627326795717366e-01 -2.7043035132696913e-01 -4.6136218478892710e+00
41 9.4198825272332414e+00 -1.9159191741931149e+01 -1.9956973810782820e+01
40 -1.9927368792406046e+00 6.6805882532931742e+00 -2.3718347667238233e+00
42 2.9941082564523445e+00 1.0515975795221943e+01 1.2440099528884179e+01
150 4.4670359452610180e+00 5.8809921068347695e+00 -7.1967369701911865e+00
75 -8.9675892175869332e-01 -1.0021242296304111e+01 -1.0510955761599350e+01
78 2.3516874276798482e+01 9.6386119741408098e+00 -1.9022999607622580e+01
77 2.2792182394437425e+01 -6.2652867904787382e+00 3.5852044127015490e+00
148 -4.3737705358647649e-01 1.0652917295884205e+01 1.1746723935115515e-01
123 2.7610218758201106e+00 2.0462239415350464e+01 -3.9517590567471309e+01
1 -2.7395520081691620e+00 -1.1289718475053958e+00 4.5957546981478012e+00
50 1.5308866130428342e+01 -7.7096781606126115e+00 2.4649335283395946e+01
136 -6.9756063071290457e+00 5.6811173965146882e+00 -5.1839393203046473e+00
76 -2.9197526714953681e+00 2.8769573592608308e+00 -1.6778269792412437e+00
135 -1.4481176770913695e+01 3.9724296566686803e+00 -2.2268531943207954e+01
133 -1.4545178569418293e+00 1.1330511868804741e+01 -2.7221935745948134e+00
138 1.8350669794384896e+01 4.4813413873187482e+00 9.7207701830399191e+00
134 4.7321299421310608e+00 -1.5978649785384908e+01 9.7421577934963004e+00
21 -9.3879235517407036e+00 -1.9644182088575608e+01 -1.4685360513970096e+01
2 -1.9204066862848158e+01 -2.6367500777040078e+01 -1.1991355536835572e+01
19 2.8243031534191725e+00 -2.9683560947958134e+00 4.5750743398041083e+00
113 -1.5654869782432197e+01 -9.6487318592065972e+00 2.4374519060314917e+01
167 -1.9310331745668407e+01 -2.5436455104466955e+01 1.8463593827058951e+01
145 1.9304693821142822e+00 -3.8972981148723411e+00 2.3746578963372791e+00
65 -7.3531803190551930e+00 1.8558670835411856e+01 -8.4786356220080759e+00
146 8.5688120156768441e+00 -2.5172676631622878e+01 1.0122898786155123e+01
158 5.0736159814789816e-01 4.1704770584369033e+00 -6.2161345736747697e-01
64 -5.3696865125860720e+00 -8.8358630787240511e-01 5.8933548723208737e+00
66 -1.0190144778462232e+01 1.9471543219783136e-01 -2.0657635914534438e+01
147 2.7340764333030243e+01 -1.6159127692914161e+01 1.4329229335874388e+01
97 7.7716640277818190e+00 -4.5487174559928807e+00 -3.7206571804680677e+00
36 7.0922045003595207e+00 1.3074327036416557e+01 1.2703410512829423e+00
8 6.3716633077509117e+00 -1.3092396548602794e+01 1.8639606737939076e+01
159 3.6354059554057199e+00 -3.6629953685316492e+00 -9.3190609365045862e+00
82 4.7069591264133841e+00 -4.9480206992146210e+00 -4.0083985626897040e-01
83 -2.1210358821707544e+01 1.6975459814637928e+00 7.8151276780270862e-01
33 9.2519691325659181e+00 -2.3664400006100788e+01 -7.2173713584717669e+00
7 -2.8979931285662324e+00 1.5740594743448216e-01 -8.6584620594382127e+00
174 -1.6337244318646203e+01 3.3105619156679098e+00 1.9217015140259872e+00
98 6.0808010017292302e+00 3.2151876974489348e+01 2.9252930132798500e+00
30 -2.4187786499141199e+00 -1.5880441540201302e+01 -3.5708509888114065e+01
121 -1.8426484753111645e+00 6.6561032903591416e-02 -4.2247699437543096e+00
81 6.0158117125986941e+00 2.0543571404971148e+00 1.8238282060512855e+01
171 -1.7308799152086586e+01 7.2793345325542385e+00 1.3406622798568511e+01
105 2.7437803052825327e+01 1.9562968511549840e+01 9.9904414006527862e+00
59 1.1633762636956739e+01 1.9061970824632997e+01 2.2872841297239809e+01
58 -3.4410145297676022e+00 -4.5758262001202290e+00 -4.1313920647651576e+00
12 -2.4289218982020802e+01 -3.4041564621909202e+00 -1.0360822725919400e+01
127 -4.0154947583878213e+00 1.2889418822089077e+01 3.3826689315204483e-01
128 2.1188793367899944e+01 -1.9162940679240311e+01 -3.0684123657325262e+01
149 1.2046678514482292e+00 -1.3852415547387814e+01 8.9232982660632254e-01
122 -1.8678058857555914e+01 -4.2775417665404305e+00 1.4998761692333018e+01
152 -2.9491098127373334e+00 9.2881420335442115e+00 -1.3507128607498876e+01
172 -1.1410550575641385e+00 -3.0288048670904923e+00 -4.1529292266609401e+00
55 -2.7426207338024229e+00 1.2961257440853473e+00 -1.9814330277546560e-01
173 1.1802114978869227e+00 -2.8269943312491591e+01 -1.6700429552381905e+01
23 5.2243347784714040e+01 -1.9598325948507714e+01 6.9513086376913460e+00
86 1.1586943897114571e+01 3.4050450311552055e+01 5.3214915190054732e+00
87 -2.3923171156190353e+01 -3.1108963103970462e+00 3.9125327267180880e+00
85 -4.4898729150603039e-01 1.0470675238757583e+00 2.3774732006617127e+00
132 1.1511314871849386e+01 -2.2066833858235167e+01 4.7007806836670882e+00
20 -3.3067978515577991e+01 -3.9654665395023883e+00 2.7574899773726842e+00
56 1.9610855158973076e-01 -1.7715582697523931e+01 -1.4715120745534856e+01
178 5.3016475121928046e+00 3.9279673849879413e+00 3.3883048177688604e+00
179 -2.3224664609237125e+00 -1.9105877981647815e+01 -1.0440906473486661e-01
114 2.3095290406759094e+01 -1.3589939923883281e+00 1.5582723335586648e+01
95 -3.4657012966298062e+01 1.5462988115874429e+01 2.7577705257874598e+01
189 -1.2877359503414620e+01 5.8246029046791064e+00 3.1605204610792221e+01
187 5.5439933878262480e+00 4.4607585404881887e+00 5.5987681302487662e+00
184 -4.4342903006141237e+00 -3.1101659867852804e+00 1.0158372989320510e+00
185 5.3808208132646120e+00 -1.4055749245973292e+01 -8.4059026010828255e+00
186 3.2548868266891744e+00 2.5326707173646778e+01 -8.4413472373284915e-01
188 -1.0641023821250611e+01 3.4911919550382216e+01 -1.7646047543241114e+01
49 8.5513563796769017e+00 -1.1873974364746742e+00 6.1397373821891295e+00
27 -1.7037764203169752e+00 2.8091868427937476e+00 1.5354572947472221e+01
94 1.0351468596214230e-02 -7.4449746583900822e+00 -4.7704382508957494e-01
192 2.8181943518423026e+01 4.3880299756953356e+00 1.7119611510054022e+00
155 -1.6545224951144085e+01 7.5554715021722654e+00 -4.8491766330771817e+00
4 9.4577169386072657e-01 -2.2810087236389505e+00 -3.1907422280099231e+00
165 8.4071747811442634e+00 -1.6815845925302697e+00 -7.8038006760070964e+00
164 9.0890908983745433e+00 -1.3496118383988080e+01 -1.0978068021413327e+01
163 -3.8191882055410113e+00 4.3226192294406829e-01 -4.0011575080458854e+00
108 -2.9817013374419517e+01 -1.8359740107665957e+01 -1.2072906651944537e+01
154 -1.0804098039761523e+00 1.1008908901629336e+01 -4.0651230424661025e+00
57 -1.0976777015999026e+01 -5.8068372270075868e+00 1.9737040385759396e+01
6 1.0546039459298676e+01 -2.7535950726876514e+01 -1.0189239309175011e-01
169 2.2601554271543232e+00 -8.1286624850974576e+00 3.8882731818089225e+00
99 1.4191947016351241e+00 1.0038734077932610e+01 -1.3505244575202500e+01
107 -2.7815321743128516e+00 2.4352078092711054e+01 -1.5873130559217156e+01
106 2.8922502639083496e+00 -3.5464496265543772e+00 -4.6945982207439307e+00
156 -4.7233727366502105e+00 -2.0112729723771512e+01 -8.0380439005900139e-01
73 2.8778160751220252e+00 -2.6690716999075903e+00 -1.5237939936863276e+00
74 2.4441412178715818e+00 1.2541748106129669e+01 -3.0417871046009459e-01
3 1.7646352478663029e+01 -6.5732064090306297e+00 1.9531788892123892e+01
176 9.2100613209227356e-01 3.8622418966673973e+00 -7.8566633082965109e-01
170 9.7245177272497845e+00 2.8904386751391986e+01 -2.9895885460053972e+01
117 2.3497459341777208e+01 2.1619898025424977e+01 4.3453013458411629e+00
190 1.5960526339658581e+00 7.1747173058310603e+00 6.2076633342320983e-02
191 1.0633204655416801e+01 -7.7753974428542625e+00 1.5738502766001252e+01
115 -4.3383456688011277e+00 3.7523428230728775e+00 4.6420767437233170e+00
10 5.6024605200131843e+00 -6.7440499578091195e+00 -4.9388402204667861e+00
116 -2.8033499748562271e+01 -1.1755133904590129e+00 1.2598409488694717e+00
60 -2.1137367429837415e+01 -1.7322091970445159e+00 9.3837335311543697e+00
104 1.7165027401962323e+01 -6.1382746044270062e+00 1.5811192710668816e+01
103 -2.4062570237012824e+00 3.0649328672797904e+00 -3.1330257890686619e+00
129 2.3862871354959065e+01 8.3126857406048160e-01 -3.4903555830657629e+00
70 -5.5447596377976156e+00 -1.0994621112838047e+01 -6.2618045719827924e+00
151 -1.2211145470761047e+00 3.1212775503759129e+00 2.8277685569258191e+00
26 -7.2712870836347836e+00 -6.9400620011225933e-01 7.4658938174697536e+00
96 2.3573005046787046e+01 7.3374891959122279e-02 -9.5770369771085520e+00
25 -8.4920975954615479e+00 1.2774200499920290e+00 7.5706331248785057e+00
84 1.5643488374758221e+01 9.6049273585930024e+00 -6.5826261296384958e+00
71 -3.5085968467039624e-02 7.1784833672218697e+00 2.8982903315322375e+01
177 -1.0219130858741366e+01 -1.1261170458777718e+01 -7.6705343114635802e+00
34 3.2084211236871329e+00 -1.0076854454017024e+01 -6.6472206889593666e-01
79 -1.6238224398484551e+00 -1.6362591973696889e+00 4.8948349991684124e+00
112 -3.1689751079798341e+00 5.4779829821924624e+00 5.8807854215434245e+00
35 2.5598357040841608e+00 -4.7860515633781819e+00 1.0630622693605497e-02
181 -3.0282529177284565e+00 3.4637579420086437e+00 -5.0713475793996601e+00
182 8.7328545585488477e+00 5.9289900189685083e+00 -2.2070621954870699e+01
183 -1.8206974839391805e+01 1.2908344335792981e+00 6.3216691830597749e-01
160 5.4128588301153098e+00 -3.3479686956532198e+00 1.0712112187311496e+00
93 3.4737757502480591e+01 1.5875556701951137e+01 3.8657050724789390e+00
91 -3.3001648365625869e+00 4.5931889730989122e+00 1.4198238674556980e+00
161 -5.3575930176590045e+00 -1.5773321479257851e+00 3.8037753851685432e+00
92 -3.6648558330164840e+00 -1.7832613378448812e+01 -2.7977437211132102e+01
