LAMMPS data file via write_data, version 2 Jun 2020, timestep = 200000

192 atoms
2 atom types

0.0 12.6351 xlo xhi
0.0 12.6351 ylo yhi
0.0 12.6351 zlo zhi

Masses

1 15.9994
2 1.00794

Atoms # atomic

2 2 2.0465165279411305e+01 1.9986640984655367e+01 1.4348028627151155e+01 0 0 0
6 2 2.2907128344441571e+01 2.2447292625537941e+01 1.4226581023150837e+01 0 0 0
19 1 2.1685042100860549e+01 2.1434517679611339e+01 1.5062257837594698e+01 0 0 0
20 2 2.1140664910674552e+01 2.1998060328109549e+01 1.5597763893830839e+01 0 0 0
21 2 2.2350287979189062e+01 2.1187705009929967e+01 1.5702823624894879e+01 0 0 0
11 2 2.3871565934174548e+01 2.0351095769046239e+01 1.7520804950889669e+01 0 0 0
5 2 2.3735701508190282e+01 2.3763701066503966e+01 1.3780932675185227e+01 0 0 0
8 2 2.0431798738831251e+01 2.3387188401179589e+01 1.7267135839753074e+01 0 0 0
10 1 2.3299567721998873e+01 1.9808323343180653e+01 1.6911185141684513e+01 0 0 0
31 1 2.6170312658120530e+01 2.2633740490433397e+01 1.6795781072959464e+01 0 0 0
9 2 2.5782404596289936e+01 2.2031142263369436e+01 1.7493408016598266e+01 0 0 0
24 2 2.5361849270069570e+01 2.3995876415316655e+01 1.5920353951221864e+01 0 0 0
7 1 3.1817716185992239e+01 2.2763588281398476e+01 1.6700689313555745e+01 -1 0 0
26 2 2.6913188841062585e+01 2.0456431074659214e+01 1.4178981669820059e+01 0 0 0
44 2 2.7209442282048173e+01 2.2076441158566830e+01 1.5635933023423558e+01 0 0 0
43 1 2.7941325575078288e+01 2.1490971095015205e+01 1.5203984791995470e+01 0 0 0
32 2 2.6746005291367794e+01 2.3117609450434756e+01 1.7399747231378445e+01 0 0 0
45 2 2.8273323419835229e+01 2.0848792718837124e+01 1.5779214571549247e+01 0 0 0
29 2 3.0097214485026413e+01 2.3732694444051806e+01 1.4245576182288435e+01 0 0 0
30 2 2.8939603918705885e+01 2.2578358295778752e+01 1.4302714151735806e+01 0 0 0
35 2 2.9780481505458788e+01 2.0560671495259637e+01 1.7428109059039347e+01 0 0 0
33 2 3.1388168375653436e+01 2.2267834128124090e+01 1.7427344798658215e+01 0 0 0
28 1 2.9471033127192740e+01 2.3206537235616185e+01 1.3726498023827469e+01 0 0 0
48 2 3.1026437689434765e+01 2.4022906671791997e+01 1.5818791158026547e+01 0 0 0
25 1 2.6367095905283776e+01 1.9794420184700773e+01 1.3750375515334747e+01 0 0 0
34 1 2.9231079974614495e+01 1.9934963193238882e+01 1.6921038030259620e+01 0 0 0
12 2 2.2518687456169172e+01 2.5744717359376640e+01 1.7441921141955138e+01 0 0 0
23 2 2.4380893339647741e+01 2.5129397755799765e+01 1.6004243998579771e+01 0 0 0
58 1 2.3223791243861584e+01 2.6303979536507448e+01 1.7046989882361142e+01 0 0 0
69 2 2.2268431628839334e+01 2.7185964913703867e+01 1.5986346733973141e+01 0 0 0
50 2 2.0866643651353879e+01 2.7105659114840080e+01 1.3967552314546815e+01 0 0 0
67 1 2.1773849980204936e+01 2.7747016151959052e+01 1.5309293234038133e+01 0 0 0
22 1 2.4904524188358256e+01 2.4616790647518194e+01 1.5349252879523000e+01 0 0 0
3 2 2.5929614480711642e+01 2.5651504269671836e+01 1.4242398191639680e+01 0 0 0
73 1 2.6372929351908979e+01 2.6114231673984449e+01 1.3524633318216797e+01 0 0 0
74 2 2.6757741690861227e+01 2.6866539629475536e+01 1.4128201593288455e+01 0 0 0
91 1 2.7440857648818920e+01 2.7709104637127385e+01 1.5273456131690034e+01 0 0 0
46 1 3.0749820181372208e+01 2.4837208873592793e+01 1.5347701967859710e+01 0 0 0
47 2 2.9884190828359230e+01 2.5223322283695914e+01 1.5762452290375453e+01 0 0 0
27 2 3.1754380727062482e+01 2.6080121188790915e+01 1.4459018649384225e+01 0 0 0
36 2 2.8548602121261041e+01 2.5548494504083983e+01 1.7507553183595746e+01 0 0 0
93 2 2.8017928825330422e+01 2.7252424562010454e+01 1.5945156452245715e+01 0 0 0
49 1 3.2137070763823047e+01 2.6476171363620669e+01 1.3672021648178593e+01 -1 0 0
82 1 2.8945757941543270e+01 2.6176816573396017e+01 1.6838555031031031e+01 0 0 0
83 2 2.9498093567425741e+01 2.6699356647479739e+01 1.7363165021463239e+01 0 0 0
92 2 2.6936481640077155e+01 2.8342286208485898e+01 1.5849607069726233e+01 0 0 0
68 2 2.1219719345048322e+01 2.8368692479208420e+01 1.5880102108188524e+01 0 0 0
54 2 2.2858770185721962e+01 2.8536350919262716e+01 1.4433635915654069e+01 0 0 0
56 2 2.0529424664182567e+01 2.9916964857021384e+01 1.7580401061249937e+01 0 0 0
53 2 2.3672447702786712e+01 2.9890118186974870e+01 1.4368092922693409e+01 0 0 0
52 1 2.3202023765080888e+01 2.9186608470231725e+01 1.3814860069723975e+01 0 0 0
60 2 2.2790194096660716e+01 3.2103556705340431e+01 1.7481040466129123e+01 0 0 0
71 2 2.4006412204588933e+01 3.1541089862789718e+01 1.5648927441772951e+01 0 0 0
51 2 2.5834300032974447e+01 3.2117552959782671e+01 1.4405221119234641e+01 0 0 0
70 1 2.4718071115011199e+01 3.1148390411717440e+01 1.5120047973342579e+01 0 0 0
72 2 2.5259961492528994e+01 3.0770009893017502e+01 1.5874005159622682e+01 0 0 0
57 2 2.5605589581067303e+01 2.9238166771864549e+01 1.7525838117699486e+01 0 0 0
55 1 3.1942882492918006e+01 2.9392574884418970e+01 1.6858855577820545e+01 -1 0 0
79 1 2.6241886405630979e+01 2.9615377816730533e+01 1.6958760820619091e+01 0 0 0
80 2 2.6870764251951343e+01 3.0141276931011696e+01 1.7489322481767744e+01 0 0 0
84 2 2.8659244227731435e+01 3.2318554415524211e+01 1.7562884984389019e+01 0 0 0
81 2 3.1325216284247247e+01 2.8880821620974196e+01 1.7424409905247515e+01 0 0 0
75 2 3.1391077955451884e+01 3.1872246799529130e+01 1.3942717015820170e+01 0 0 0
78 2 2.8301028964575409e+01 2.8803963266773216e+01 1.4322871829395325e+01 0 0 0
77 2 2.9520712489973199e+01 2.9841018141254423e+01 1.4465587523774605e+01 0 0 0
94 1 3.0563072045496501e+01 3.1175638621609856e+01 1.5453996709214511e+01 0 0 0
95 2 3.0007318254036388e+01 3.1785120400673648e+01 1.6031377708671332e+01 0 0 0
96 2 3.1030808553749701e+01 3.0520999205232776e+01 1.6080364207957331e+01 0 0 0
76 1 2.8956955127567163e+01 2.9314334809230992e+01 1.3812074042121608e+01 0 0 0
1 1 3.1869676991826609e+01 3.2656583413912784e+01 1.3566378286703953e+01 -1 -1 0
100 1 2.3284995073472395e+01 2.3316317724150409e+01 2.0230097227523157e+01 0 0 0
102 2 2.2878284058524695e+01 2.2859625973638348e+01 2.0981305902713530e+01 0 0 0
98 2 2.0784939877313846e+01 2.0439961618030814e+01 2.0876177672459026e+01 0 0 0
115 1 2.2002162352238802e+01 2.1557284028138412e+01 2.1800608892157694e+01 0 0 0
101 2 2.3845771193748824e+01 2.4030602052082305e+01 2.0611261393031238e+01 0 0 0
15 2 2.2152043035431685e+01 2.3733488437468814e+01 1.8748008226728423e+01 0 0 0
17 2 2.4468253707015350e+01 2.1968733601349708e+01 1.9320636022031234e+01 0 0 0
16 1 2.4909044175132188e+01 2.1328808325425754e+01 1.8748699237315357e+01 0 0 0
18 2 2.5519697497054558e+01 2.0740813737005396e+01 1.9242876512901731e+01 0 0 0
97 1 2.0313493704371261e+01 1.9908869446770478e+01 2.0191784495932755e+01 0 0 0
122 2 2.6934701408582619e+01 2.0473317548328797e+01 2.0882205882585662e+01 0 0 0
139 1 2.7678608449222445e+01 2.1492057964635155e+01 2.2146806546461079e+01 0 0 0
121 1 2.6475951847769750e+01 1.9843583416348711e+01 2.0319199728425389e+01 0 0 0
126 2 2.8859949401171917e+01 2.2613097173485144e+01 2.1169424143296258e+01 0 0 0
40 1 3.0795219796772471e+01 2.1598273916007468e+01 1.8793304097574808e+01 0 0 0
41 2 3.0272280750800753e+01 2.2074338373608562e+01 1.9517203577202000e+01 0 0 0
42 2 3.1275212598648068e+01 2.0969907438628891e+01 1.9297530832080884e+01 0 0 0
124 1 2.9386286885761024e+01 2.3087453238766948e+01 2.0540491570781096e+01 0 0 0
125 2 2.9840120318100816e+01 2.3809998141864519e+01 2.1126218735742814e+01 0 0 0
39 2 2.8009143403109523e+01 2.3967571977294160e+01 1.9076840389541999e+01 0 0 0
59 2 2.3651993932366462e+01 2.6735209867627521e+01 1.7850611001012506e+01 0 0 0
13 1 2.1676172673480743e+01 2.4318193972740250e+01 1.8145427096246518e+01 0 0 0
14 2 2.1152593842523935e+01 2.4871369030724367e+01 1.8771006449099154e+01 0 0 0
146 2 2.1068230152598506e+01 2.6527303973349959e+01 2.0361837022380271e+01 0 0 0
163 1 2.1598572884707483e+01 2.7985699119641939e+01 2.1622856807652418e+01 0 0 0
145 1 2.0427872972456061e+01 2.5993954079928450e+01 1.9935833562351760e+01 0 0 0
118 1 2.4814071024534446e+01 2.4941273923480157e+01 2.1853845674713611e+01 0 0 0
99 2 2.5771793291502689e+01 2.5945402896155517e+01 2.0732418737178207e+01 0 0 0
66 2 2.5376543800299444e+01 2.7506010700481298e+01 1.9142874298629319e+01 0 0 0
64 1 2.4624598775800049e+01 2.7942146146615521e+01 1.8677281335529614e+01 0 0 0
38 2 2.7006199132760873e+01 2.5151903076641226e+01 1.8954554851663232e+01 0 0 0
169 1 2.6369723791433412e+01 2.6393174077782703e+01 2.0138045108661714e+01 0 0 0
37 1 2.7505386106423710e+01 2.4475578235737633e+01 1.8409764704262177e+01 0 0 0
170 2 2.6894566180262430e+01 2.6902719030590898e+01 2.0783422695382157e+01 0 0 0
187 1 2.7960648601870044e+01 2.7909693516746231e+01 2.1816459079064717e+01 0 0 0
142 1 3.1215737177233869e+01 2.4824449412737824e+01 2.1758328556837704e+01 0 0 0
123 2 3.1981493636330008e+01 2.5359013382254240e+01 2.0590506993851182e+01 0 0 0
90 2 3.1171457843568724e+01 2.7579595562796790e+01 1.9017061415006030e+01 0 0 0
88 1 3.0445442479774890e+01 2.7827184107834555e+01 1.8330147526943339e+01 0 0 0
65 2 2.4182711921417638e+01 2.8551174433479510e+01 1.9280776600008068e+01 0 0 0
150 2 2.2593229856873769e+01 2.9220975213933166e+01 2.0723798664730751e+01 0 0 0
61 1 2.1652342690996587e+01 3.0967576714728672e+01 1.8375221282096160e+01 0 0 0
62 2 2.1307989815920820e+01 3.1621166088094988e+01 1.9060347650321663e+01 0 0 0
63 2 2.2089612392418967e+01 3.0263700221054521e+01 1.8918066742757574e+01 0 0 0
148 1 2.3247880499777111e+01 2.9666407048844743e+01 2.0120755665651302e+01 0 0 0
149 2 2.3840749874181906e+01 3.0260886543571139e+01 2.0609447991849713e+01 0 0 0
164 2 2.1030467148091819e+01 2.8566082257754569e+01 2.2147208227289255e+01 0 0 0
147 2 2.5946774038809679e+01 3.2082244929234307e+01 2.0851884592944167e+01 0 0 0
166 1 2.4959321590493477e+01 3.1067585304364851e+01 2.1856416989912447e+01 0 0 0
86 2 2.7346690011118191e+01 3.1853644294426253e+01 1.9069706868131149e+01 0 0 0
85 1 2.7632301442063106e+01 3.1237252802051231e+01 1.8372239431909232e+01 0 0 0
89 2 2.9966003603360850e+01 2.8469488385834161e+01 1.8902670095526226e+01 0 0 0
87 2 2.8154852827942801e+01 3.0537462359194059e+01 1.8852195630191581e+01 0 0 0
174 2 2.8532770838771881e+01 2.8928126094251859e+01 2.0809607815276884e+01 0 0 0
171 2 3.1532582006537808e+01 3.2219083020835853e+01 2.0638083881290136e+01 0 0 0
172 1 2.9085232477838684e+01 2.9416737987345808e+01 2.0092789368166695e+01 0 0 0
173 2 2.9744471047567476e+01 3.0032952666425892e+01 2.0527830618571674e+01 0 0 0
190 1 3.0824262182320929e+01 3.1287579050224814e+01 2.1672995381980861e+01 0 0 0
4 1 2.3333243558021952e+01 2.2946384009768003e+01 2.6523109684165711e+01 0 0 -1
116 2 2.1420559353568841e+01 2.1968041186169348e+01 2.2437312049471682e+01 0 0 0
117 2 2.2626291046417741e+01 2.0998353585067569e+01 2.2276144736461404e+01 0 0 0
107 2 2.4269508321173355e+01 2.0398430394978014e+01 2.4010989492124402e+01 0 0 0
104 2 2.0791613331096354e+01 2.3445693672276370e+01 2.3911999204945687e+01 0 0 0
106 1 2.3705544764580093e+01 1.9806650373730648e+01 2.3461306506791320e+01 0 0 0
113 2 2.4539915270023030e+01 2.1878576608304751e+01 2.5696968480276539e+01 0 0 0
105 2 2.5917595892731072e+01 2.2520120490252090e+01 2.4295442201841698e+01 0 0 0
112 1 2.5053325324558298e+01 2.1396935403283141e+01 2.5040910513640771e+01 0 0 0
114 2 2.5592747549172927e+01 2.0724340483458981e+01 2.5567123378317511e+01 0 0 0
127 1 2.6103209676862985e+01 2.3095704973475598e+01 2.3560581821559314e+01 0 0 0
111 2 2.2054351340206875e+01 2.3903555260952157e+01 2.5496732502076025e+01 0 0 0
103 1 3.2120381337419396e+01 2.2866387178313445e+01 2.3418058219788158e+01 -1 0 0
140 2 2.7171738150502620e+01 2.2039241284105131e+01 2.2796262170803438e+01 0 0 0
128 2 2.6883752865599778e+01 2.3687622912343013e+01 2.3846318866115784e+01 0 0 0
141 2 2.8246128947706797e+01 2.0853681658940918e+01 2.2637309561451264e+01 0 0 0
129 2 3.1518469450350384e+01 2.2468010941338513e+01 2.4133094111668118e+01 0 0 0
131 2 2.9858899817502021e+01 2.0321111906023322e+01 2.3917986171298999e+01 0 0 0
136 1 3.0543696528806684e+01 2.1554430864252179e+01 2.5160781579253307e+01 0 0 0
137 2 3.0004092378637029e+01 2.2239362074701297e+01 2.5602415516170066e+01 0 0 0
138 2 3.0911187630245216e+01 2.1032562412819829e+01 2.5861535800210859e+01 0 0 0
135 2 2.8531583544042444e+01 2.3991119025575063e+01 2.5293669609625699e+01 0 0 0
109 1 2.1386083805671216e+01 2.4495714946049585e+01 2.5134981191175910e+01 0 0 0
110 2 2.1039430076937371e+01 2.5144082705658359e+01 2.5748464947975190e+01 0 0 0
108 2 2.2544803223418597e+01 2.6149500998006548e+01 2.3953175499014339e+01 0 0 0
154 1 2.3209969971921719e+01 2.6559023474510084e+01 2.3434322006783322e+01 0 0 0
165 2 2.2264049685845915e+01 2.7742130592064505e+01 2.2263195357622802e+01 0 0 0
155 2 2.3902007350836946e+01 2.6823906571862121e+01 2.4029127290317398e+01 0 0 0
120 2 2.5211286157317833e+01 2.4349067721008122e+01 2.2505288566800409e+01 0 0 0
119 2 2.4211367616202487e+01 2.5552375471029389e+01 2.2371693662275618e+01 0 0 0
162 2 2.5350252483306530e+01 2.6896991671579968e+01 2.5724847512410097e+01 0 0 0
160 1 2.4792615413601752e+01 2.7564895896202223e+01 2.5135180489302815e+01 0 0 0
161 2 2.4205910112747233e+01 2.8045557833127610e+01 2.5702224149835747e+01 0 0 0
144 2 3.1658170819320532e+01 2.4339443448150199e+01 2.2456955430461175e+01 0 0 0
189 2 2.8626227684928637e+01 2.7396300576432779e+01 2.2296929914169937e+01 0 0 0
133 1 2.8101245460580920e+01 2.4635757392531723e+01 2.4602904356958664e+01 0 0 0
134 2 2.7455533374658522e+01 2.5055073419911160e+01 2.5166534391441218e+01 0 0 0
143 2 3.0673913138608349e+01 2.5528925338430376e+01 2.2302998843167860e+01 0 0 0
132 2 2.9293516187949272e+01 2.5875670720016295e+01 2.3972599486902521e+01 0 0 0
178 1 2.9804881411130644e+01 2.6400102975746439e+01 2.3358185976791635e+01 0 0 0
179 2 3.0340440081700567e+01 2.6957631255833036e+01 2.3961966573861449e+01 0 0 0
186 2 3.1215699453704399e+01 2.7528787139208049e+01 2.5702114135877753e+01 0 0 0
184 1 3.0765484095822501e+01 2.8165166123732540e+01 2.5126938801060536e+01 0 0 0
188 2 2.7424501080500605e+01 2.8292289824603444e+01 2.2520666173604656e+01 0 0 0
156 2 2.3077167646669256e+01 3.2338886856798268e+01 2.4119642523441339e+01 0 0 0
152 2 2.1088365360809767e+01 3.0347383428654389e+01 2.4041459512190272e+01 0 0 0
157 1 2.1959905617889561e+01 3.1066940137373162e+01 2.5227574905678125e+01 0 0 0
158 2 2.1467332314822976e+01 3.1721635082988598e+01 2.5860173754028697e+01 0 0 0
159 2 2.2289886756229592e+01 3.0368166604981511e+01 2.5787924470383956e+01 0 0 0
167 2 2.4553734697210924e+01 3.1615452038067719e+01 2.2572168896532233e+01 0 0 0
168 2 2.5459850647567478e+01 3.0360782028361960e+01 2.2333736003451776e+01 0 0 0
153 2 2.5668820723829946e+01 2.8702801708923115e+01 2.4222465357247383e+01 0 0 0
151 1 2.0513010172587489e+01 2.9876057778885233e+01 2.3383916774996596e+01 0 0 0
130 1 2.9287119802151331e+01 3.2601018374963338e+01 2.3433299283577718e+01 0 -1 0
175 1 2.6288129868585784e+01 2.9173955971485185e+01 2.3626538116632087e+01 0 0 0
176 2 2.6801093863481459e+01 2.9801944948600145e+01 2.4149002125454896e+01 0 0 0
182 2 2.7370338098699403e+01 3.1642978537268334e+01 2.5793501027869159e+01 0 0 0
181 1 2.7980746189277447e+01 3.1248017035514678e+01 2.5088990499873184e+01 0 0 0
183 2 2.8535778888712318e+01 3.0674194318222646e+01 2.5621630270699963e+01 0 0 0
191 2 3.0275452208633823e+01 3.1778768155718758e+01 2.2333634679150517e+01 0 0 0
177 2 3.1914574114085969e+01 2.9238307081785422e+01 2.3940414582179436e+01 0 0 0
185 2 3.0065234733953471e+01 2.8460011286120569e+01 2.5794190564990981e+01 0 0 0
192 2 3.1468972297619914e+01 3.0751185568186663e+01 2.2296637842026612e+01 0 0 0
180 2 2.8754467028083418e+01 3.2245956928360052e+01 2.4172683354653657e+01 0 0 0

Velocities

2 -2.1309556831343240e+01 1.0357840299564623e+01 2.1523168934846751e+01
6 6.8038847427968063e+00 -1.4549220386238900e+01 -2.0642232338225604e+01
19 -1.7943623797730444e+00 2.3362295847649630e+00 -5.8484799791206523e+00
20 1.6348145648449901e+01 4.0907933572646584e+00 1.1321809166885547e+01
21 -6.4320853770499316e+00 1.7914769093228671e+01 -5.3567907166932702e+00
11 8.0602427187203780e+00 4.0963980985199413e+00 1.0782881325971321e+01
5 7.0826345826755921e-01 8.0247900200187161e-01 -6.2650816605697104e+00
8 -1.0333778088797848e+01 2.3748681235050700e+01 -1.9440717551936235e+01
10 3.3788963947391268e+00 -8.0342701881055785e+00 2.3542732572644445e+00
31 8.1457288423565348e+00 4.5424496390128255e-01 -3.8109708768086619e+00
9 -8.3537535437644230e+00 2.0484949024837185e+01 -1.2057155756937532e+00
24 -1.7529699370383717e+01 -1.8985870099344126e+01 -1.3252220682653405e+01
7 -3.1752039732693880e+00 -7.0437221199192450e+00 7.3361795057966861e-01
26 1.8573381286078895e+01 8.8837202888210030e+00 -3.1945089190614038e+00
44 -2.2069471993903722e+01 -1.2951390130952410e+01 2.5633371849724785e+01
43 -1.4259372164233342e+00 1.7460781954908571e+00 -5.6961273041717797e-01
32 1.0200604246117326e+01 1.4671211744744191e+01 -1.8617937475967963e+01
45 3.3809931668235457e+01 -1.9409654958735352e+01 -2.6010082477220692e+01
29 1.5120673912091254e+01 -6.0726319429552271e+00 7.2925549852445437e+00
30 -1.7697562588968108e+01 2.7861579712220870e+00 1.2113009287842956e+01
35 -1.2376157591773469e+01 -1.1524340632144638e+01 2.2782107991886935e+01
33 9.0285966349678604e-01 -1.0024241973973174e+01 1.6729971447780592e+00
28 3.6512702296777180e+00 5.0669241842097801e-01 -3.4224592695476281e+00
48 -2.4174120730493107e+00 -3.6980277500921463e+00 5.2490653220375858e+00
25 -2.0204836389417347e+00 2.7883797949127547e+00 8.9571734787587829e+00
34 6.7708595019470224e+00 -1.0424564590759010e+01 2.1537614165250387e+00
12 -5.9137372647569002e+00 5.2548219543094961e+00 -1.0193936640971476e+01
23 1.5869905514783340e+00 2.1554636638927884e+00 -2.3921017545590257e+00
58 3.6679641735621500e+00 3.5967114134291112e-01 -9.1012872707118719e-01
69 -3.8070614792595534e+00 1.7071683094794267e+01 -9.5432262226289932e+00
50 2.8306876389595306e+01 -4.3262816448691339e+00 3.2258538703174295e+01
67 7.5728849981834907e+00 -1.0628189606189389e+00 5.3677156169811298e+00
22 -5.2320503486413346e+00 3.1136203659602918e-01 -5.5213370195041325e+00
3 6.8179883176846179e+00 -5.8940553754499747e-01 -2.4608654228505955e+01
73 1.4431938344387635e-01 -2.8291560682787855e+00 -2.0670547190898123e+00
74 -1.2660905414303430e+01 -5.2646610029957666e+00 -1.6417038235624787e+01
91 -5.1081060771610509e-01 2.5181688811065643e+00 5.2856420828980317e+00
46 -8.7420435945504460e-01 -3.2850876559882103e+00 -2.3071946913395158e+00
47 1.4603231796184735e+01 3.0105632095785221e+01 -5.0110813273165116e+00
27 2.8952514176643072e+00 2.9201922516434387e+00 -4.9688232963540688e+00
36 -2.8399613301869548e+00 6.3323114966142429e+00 4.0437344977104125e+01
93 1.7467994135289647e+01 8.0528915297700081e+00 4.9802368060051618e+00
49 -8.6341984512785821e+00 8.0781593667938478e-01 -5.8441520108034926e+00
82 5.8939504112979089e+00 3.0363473899849023e+00 -5.2663624463706551e+00
83 -1.1344161631617411e+01 8.8954977927809098e-01 -3.0832185218590752e+01
92 1.7172733988318932e+01 -2.3157813499261980e+01 1.3430035967284109e+01
68 2.0564005749553427e+01 3.6344208467558310e+01 2.3166526483731648e+01
54 1.4556196653001820e+01 -1.1616460614417239e+01 1.9236090064665895e+01
56 -1.9154683286017338e+00 8.4452849805560763e+00 5.0267853599658450e+00
53 -7.6253964948044510e+00 3.2839278959697928e+00 -6.9801491507737334e-01
52 -4.6040751075034079e+00 -3.0620789274880544e+00 4.3998995471208300e+00
60 -3.1527565591607463e+00 2.1627199977702527e+00 6.9595558321517403e+00
71 3.5207525154696548e+01 1.2687714923755138e+01 -3.9604536714622802e+00
51 -2.3357735319015255e+01 2.3041205244444161e+01 -8.4543339670885764e+00
70 -5.4890356345751670e+00 -2.0153830547477547e+00 -4.2260754414132533e+00
72 1.3032535437964595e+01 1.8512513719531242e+01 4.4037160824312380e+00
57 -9.9222455211705340e-01 -2.6524837726335647e+01 1.0452395313323077e+01
55 -1.2587537488768612e+00 -2.2162350637639827e+00 -1.6656159614116455e+00
79 -4.5700386020160773e+00 1.0868820878157353e+00 8.3354417078094141e+00
80 -1.7362295070304896e+01 -2.3454935094145934e+01 8.1229625378788199e+00
84 3.7316885075636641e+00 -5.1839163277298157e+00 1.7589698267505060e+01
81 1.1419086738899043e+01 -2.8133287145355204e+01 -5.9062208148215127e+00
75 9.6112451024263539e+00 3.6459450830144342e+00 -1.7699676258222144e+01
78 -1.1125667412447839e+01 1.0690468682324845e+01 1.6083116199832628e+00
77 -1.8367187486795714e+01 1.7970179918922593e+01 1.0015138779848028e+01
94 4.7624340318630995e+00 -2.0959338659472944e+00 -1.0592741149259584e+00
95 3.6372406287768278e+01 -8.7132338211689362e+00 -2.7596632915101516e+01
96 -1.4129761326276792e+01 2.5461809796823291e+00 1.9857003850086830e+01
76 -2.7816201386330506e+00 3.5317763770074633e+00 -1.7375295286254728e+00
1 2.3139562415490329e+00 1.4664151241831735e+00 -5.3270445064648726e+00
100 1.0988539429595239e+00 4.5199015313571627e+00 2.1752403630978003e+00
102 -2.7278764815157817e+00 2.6137763808587358e+01 -8.3674380250873579e+00
98 -3.6256362450556661e+00 -1.4787094742404134e+01 1.0080587152045906e+00
115 2.5591123453120295e+00 2.0409038327311384e+00 8.5651971530118398e-01
101 -8.0403190890739984e-01 -1.0247852664367162e+01 1.3402311296996570e+00
15 -3.6410066748161398e+00 2.4774135987310757e+01 5.2365105304246597e+00
17 5.2957761760145532e+00 -1.8691546556615702e+01 4.9557204732929803e+00
16 -5.7779925634699714e+00 -4.4416233206788558e+00 4.8197629340055874e+00
18 4.4529298360176046e+00 2.0189887175170927e+01 7.8858121707386557e+00
97 -5.4286334045305162e-01 -2.3436527707931183e+00 -2.1641249755083600e+00
122 9.1874244212786504e-01 -6.2346391797058791e+00 2.9427288874229554e+01
139 1.9782844691862495e-01 3.3010846459006156e+00 -2.6173548821902490e+00
121 -6.3430472620403489e+00 3.6053601938078748e+00 -5.5503193066660135e+00
126 -5.4434130640520149e+00 -6.7957685033233437e+00 2.1584761959940611e+01
40 -2.4955134000415446e+00 -8.8592010645386416e+00 4.8382353303609147e+00
41 9.3134348146020454e+00 2.7173096983051369e+01 -9.2536101002735549e+00
42 4.2402928001981962e+01 1.2614259246200870e+01 -1.7277061703093455e+01
124 -4.2549653231050261e-01 6.3511045757251212e+00 -3.9531528914952889e+00
125 1.4496383751838625e+01 9.5244945825515597e+00 -2.9882232107183562e+00
39 -1.5313836779651094e+01 -3.3604003427949770e+01 2.1677944254383345e+01
59 -7.2930776965678277e+00 -2.4638559729887824e+01 -3.2978688901587354e+00
13 3.2199306649283510e-01 -3.9976003409852576e+00 2.0445918060862702e+00
14 1.0268794856395344e+01 -1.0937012926535150e+01 5.2155737617345874e+00
146 2.8559800650538001e+01 -2.1863780403251205e+01 4.3796708860000146e+00
163 1.1686057390051281e+00 -6.2543496530203191e+00 7.1109214380930019e-01
145 1.2443198982944530e-01 -3.1720078373753152e-01 -2.9317792875817119e+00
118 1.0532136704306028e+00 4.2058279786561528e+00 -2.3698517772502381e+00
99 1.1002257100738138e+01 -4.6412237424084752e+00 -2.8069941120854757e+01
66 -1.5856117240733822e+00 2.7112289495809097e+01 -3.0769630337978599e-02
64 -5.3445975434834470e+00 -6.1261326855763110e-01 -4.5644425850558221e+00
38 1.3833677925970346e+01 2.4987882020930449e+01 6.0468935608108891e+00
169 1.6599931093322597e+00 -4.4592762377632162e+00 -4.0408274135758182e-01
37 -3.9665756307779985e+00 6.9206550129200153e+00 1.4056723831562701e+00
170 1.0629566522324717e+01 3.5667316371314843e+00 5.2998279301645441e+00
187 -7.8229767330853528e-01 -6.7750353629286799e+00 -1.3054131768916202e+00
142 -3.0650899951987587e-01 -3.0031771433473975e+00 -4.7175843852508468e+00
123 -2.3509965400692877e+01 1.2341694400813656e+01 -6.2710748571355712e-01
90 1.3739472253758583e+01 -8.2943054989382847e-01 4.6479303465917035e+00
88 3.3352158347009953e+00 -1.1127179823638866e-01 -3.7021984181755307e+00
65 -1.0197540545144040e+01 4.4917869911498109e+01 6.4661242041613534e+00
150 -4.5624331945098087e+00 5.2177157889897714e+00 4.2361146260681670e-01
61 -1.9657073527211322e+00 -4.1724546923101729e+00 2.2723570102510058e+00
62 -9.1614623481975999e-01 -4.5039590030179724e+01 1.8325069088360088e+01
63 5.2220166458761703e+00 -3.1222057807508476e+00 -4.8052429943337147e+00
148 3.8213857721841054e+00 -8.2671518310156933e-01 -1.5378612914354133e+00
149 8.2886878702568083e+00 -2.1179210021122454e+01 4.6601551121457248e+01
164 -1.7893173042610155e+01 1.0556014679159057e+01 1.6006179472178268e+01
147 2.2080758877986931e+01 -1.2712723783180332e+01 -2.1900062602069504e+01
166 -2.5126340211399296e+00 -2.6390480696550593e+00 -7.4684932756278064e+00
86 -4.2803469165420358e+00 6.5306520584462717e+00 -8.9344091173842592e+00
85 2.5567431299529191e+00 9.7537911096690244e-01 5.6874349591785434e+00
89 7.2818671070693330e+00 2.8879081693182187e+01 -2.2563224784373844e+01
87 3.0865097700887706e+01 1.3380314050931672e+01 -4.5840922718718851e+00
174 -6.0359594456398922e+00 2.6523629836166091e+01 -1.8936331910782560e+01
171 1.6039195877442836e+01 -7.6633369201715595e+00 1.1230767317760847e+01
172 -3.7783774195192326e+00 -3.9857566403608313e+00 -2.8968951615737764e+00
173 3.5392709669326132e+00 -1.4531762397331900e+00 -3.3419596209617715e+00
190 1.8840137910975481e+00 1.9126724783197169e+00 9.9219447243475809e+00
4 -3.9053632633938475e+00 7.4506014321043290e+00 -5.0014978733039914e+00
116 -3.9613100147797731e+01 3.0417831211124269e+00 2.1005854461971886e+01
117 -7.0892963450671180e+00 1.6169156981364424e+01 1.2981699491591681e+00
107 1.3221321067949990e+01 1.6808119223274272e+01 -6.5187348590495482e+00
104 -2.8239111164205678e+01 -4.3144840136062257e+00 -5.8590600755830502e-02
106 -3.9316925544994339e+00 -3.3946439689154064e+00 -5.8765749725259997e-01
113 -2.2362433833962991e+00 2.1701422543898175e+01 -7.4987951229364764e+00
105 1.4666887180131429e+01 -8.5176839547696854e+00 2.5833344361382633e+01
112 5.0092067435076642e+00 -1.7806441428431512e+00 2.9268969979484210e+00
114 -8.9201444158344945e-01 -1.7721469569348244e+01 1.6341855874281041e+01
127 -1.0391299548496043e+01 2.3586741325994223e+00 -2.5326398353546700e+00
111 -3.1529499153120323e+01 -7.2833850861661400e+00 -1.0871657946665325e+01
103 -6.2336069946317290e+00 3.7171103496030526e+00 1.1306240303251662e+00
140 1.5107535199923892e+00 -1.8625257173777801e+01 -2.2156257227133111e+01
128 1.7139719619370983e+00 2.1199920330344938e+01 -9.9835657956170412e+00
141 8.9633168183802852e+00 1.6900193225057148e+01 -1.4483653074110669e+00
129 -6.8204882401311423e-02 -8.9287534903075336e+00 -8.1461220606150739e+00
131 6.8139188102618045e+00 -2.8894841430248302e+01 1.3985543841801762e+01
136 5.2670744439987240e+00 -3.2999737836830745e-01 2.8968833154933411e+00
137 -9.1119738793767180e+00 -1.2176726037526175e+00 -2.5421526062864306e+01
138 -2.6472123679078519e+00 -2.7297209353982119e+01 5.4376295941606649e+00
135 -2.6604720686650190e+01 1.7105736388927781e+01 -2.3390451452488119e+01
109 7.3031947854883343e+00 -9.2853110284587581e-01 2.8075329958650692e+00
110 2.5803345322860811e+00 -7.9733392900367832e+00 -3.2809298661500114e-01
108 -1.0940841717513120e+01 -1.0550940807161203e+01 1.6227830780171828e+01
154 1.2889360287838219e+00 3.8250842171227024e+00 7.6980474051677792e+00
165 -1.0372009019611268e+01 2.1289533110465331e+00 -1.4609083503616320e+01
155 -5.4308459782479677e+00 5.8605551097941042e+00 5.9856697165076369e+00
120 8.8706001975799946e+00 -1.0170070376753520e+01 7.9035824932772156e+00
119 1.4865815763912957e+00 6.1807329915347871e+01 1.3667181729184586e+01
162 -1.9663443952330351e+01 2.7601301785285628e+01 1.0575702179148102e+01
160 6.6325518459728841e+00 -3.1336471577513687e+00 1.4553969554718488e-01
161 -1.0684849503548174e+01 -1.0039086506916590e+01 1.7604285964531758e+01
144 5.9820533603033157e+00 5.4104336657225360e+00 -1.5351881738498633e+01
189 -3.0770909110235758e+00 -7.6808333569183445e+00 1.7360430800085958e+01
133 3.2195255566039322e+00 2.0986876640851819e+00 5.7260037289193546e+00
134 -2.1396630185578186e+01 1.3533234790058334e+01 -6.0732627133062591e+00
143 -2.4059061154760737e+01 -7.5204315444966419e-01 -1.6780635062080997e+01
132 2.9989035133751763e+01 1.4712343426582363e+01 1.4072866125653638e+01
178 9.4231718617876616e+00 -4.2193122660130449e+00 -3.9184551165576802e+00
179 1.4547990882895892e-01 -1.7141322007268670e+01 7.4113438971724328e+00
186 2.2539080253667954e+01 -1.9003573541076507e-01 2.4700003861844525e+01
184 -8.5549761610729220e+00 2.9326819002789994e+00 1.6636742319542588e+00
188 1.4703009224227790e+01 1.6255080174063849e+01 1.7304541064960809e+01
156 4.9442354408445093e+00 5.5085476046076380e+01 5.5059009918021644e+00
152 -1.1992458976250317e+01 -5.8790918129797358e+00 -6.8048103767591572e-01
157 2.1388551098472979e+00 -3.7062738457756567e-02 -5.9794738377999233e+00
158 -1.9812056066393382e+01 1.7309911859619046e+01 2.9167061828511596e+01
159 1.6295728103690546e+01 -4.6160676284503177e+00 4.9003077191432987e-01
167 1.2531129038846052e+01 -3.2807804441775330e+00 6.0000696563735305e+00
168 1.3303093069189053e+01 6.0162087021295614e+00 -1.4281639722553484e+01
153 -6.4889960208940032e+00 -2.9028915417689952e+01 -9.2666101185799441e+00
151 6.6000901467138395e-01 4.1365523299558813e+00 -1.9716631570191741e+00
130 -8.6833377305504378e+00 5.1569728819777909e+00 2.7515602975827433e+00
175 2.7838897297923065e-01 5.3204531422097814e+00 4.2622807759556798e+00
176 1.1858635146918468e+01 -1.5269831234953735e+01 -4.6283336541192677e+00
182 2.7972307932169723e+01 -2.3404176231103502e+01 -1.9746185611043551e+01
181 1.9214151372561521e+00 2.8674207945954850e+00 -1.6216006009626669e+00
183 5.5981380190776591e+00 3.0258834935036319e+01 1.3297605323267270e+00
191 1.6250109702129791e+01 2.2701049508868735e+01 4.8801542417314776e+00
177 -1.5249006519993783e+01 -4.3560148206077351e+01 1.4687692966586166e+01
185 1.1284002127769199e+01 -3.5740259807471716e+01 -8.0099942734694789e+00
192 -1.8916813523948314e+01 4.6355332410620498e+01 1.7685060451917849e+00
180 -2.4032637279725250e+01 -3.2701313235964221e+01 1.5429423702467968e+01
