LAMMPS data file via write_data, version 2 Jun 2020, timestep = 2000000

192 atoms
2 atom types

0.0 12.5538 xlo xhi
0.0 12.5538 ylo yhi
0.0 12.5538 zlo zhi

Masses

1 15.9994
2 1.00794

Atoms # atomic

11 2 2.3235915142435037e+01 2.0266350934884940e+01 1.6101182575804646e+01 0 0 0
21 2 2.1284695046463192e+01 2.2778400216752313e+01 1.6145138756774546e+01 0 0 0
31 1 2.2496902056901042e+01 2.1540182652141119e+01 1.7200638653030957e+01 0 0 0
162 2 2.4953700630982013e+01 2.0568266351793078e+01 1.4564544323517394e+01 0 1 1
128 2 2.5762855413376254e+01 2.2868121501667069e+01 1.4898554741126970e+01 0 0 1
9 2 2.1786906833818158e+01 2.1181899701908431e+01 1.7736913304118879e+01 0 0 0
32 2 2.2929864930298745e+01 2.2280582650339639e+01 1.7667367963948717e+01 0 0 0
160 1 2.5382836885162320e+01 2.1257180882721055e+01 1.4000995018523893e+01 0 1 1
19 1 2.0604155809692440e+01 2.3381972050963938e+01 1.5761692240144441e+01 0 0 0
127 1 2.6392348666719595e+01 2.3488280245019130e+01 1.5223439834937293e+01 0 0 1
20 2 3.1814738894455353e+01 2.2905633958711281e+01 1.5265879545496006e+01 -1 0 0
124 1 2.8141551396883003e+01 2.1904036938970808e+01 1.6769526608947153e+01 0 0 0
105 2 2.7074533213326056e+01 2.2884781634822225e+01 1.5621526413656508e+01 0 0 1
41 2 2.9720669471420010e+01 2.1086020403362220e+01 1.6402174278292936e+01 0 0 0
40 1 3.0446603773410708e+01 2.0452141124607810e+01 1.6144436638985269e+01 0 0 0
132 2 2.6877610839106350e+01 2.0867450351337173e+01 1.3640318390422385e+01 0 1 1
172 1 3.0167033044677559e+01 2.2896432286454683e+01 1.4454888315442911e+01 0 1 0
174 2 2.9540056871768748e+01 2.2187367146406444e+01 1.4289588566007527e+01 0 1 0
125 2 2.8435747304894441e+01 2.2442901969476146e+01 1.7457952441170281e+01 0 0 0
126 2 2.7727326729033138e+01 2.1182306360623848e+01 1.7288721177657635e+01 0 0 0
192 2 3.1480223777779791e+01 2.0210309681490436e+01 1.7580425126776735e+01 0 1 0
96 2 3.1170460580297206e+01 2.0425005469233156e+01 1.4494921591195018e+01 0 1 0
173 2 2.9638011636319682e+01 2.3716534692866865e+01 1.4285648826630228e+01 0 1 0
94 1 3.1584484626329839e+01 2.0243855833262305e+01 1.3636394859141971e+01 0 1 0
35 2 2.4584374222205671e+01 2.4401059205314027e+01 1.7463633081289043e+01 0 0 0
84 2 2.5684041498331808e+01 2.4599514491587790e+01 1.6309971618037977e+01 0 1 0
6 2 2.2582329260755330e+01 2.5348523727216310e+01 1.4421066684528284e+01 0 0 0
7 1 2.3396066075424866e+01 2.6397149259141891e+01 1.5364949565313198e+01 0 0 0
8 2 2.3966870658165632e+01 2.6886292449358585e+01 1.4737305227892318e+01 0 0 0
33 2 2.3997576054936076e+01 2.5912206452762526e+01 1.5918476243575212e+01 1 0 0
34 1 2.5096944856553154e+01 2.5106075800950457e+01 1.6997589579176971e+01 0 0 0
5 2 2.1292110118787235e+01 2.4422599024178247e+01 1.4380045937451392e+01 0 0 0
4 1 2.1876252904848567e+01 2.4972885987531370e+01 1.3831521955002257e+01 0 0 0
77 2 2.2594310061870601e+01 2.7514766454712806e+01 1.6640717017026333e+01 1 0 0
76 1 2.1837119729081625e+01 2.7847216428998891e+01 1.7143193470326665e+01 1 0 0
73 1 2.5074900531400225e+01 2.7777644126520478e+01 1.3959938439034648e+01 0 0 0
3 2 2.5669827351063478e+01 2.8207905143990736e+01 1.4634740440620249e+01 0 0 0
75 2 2.7451452085621028e+01 2.4725615433105155e+01 1.3908519855221359e+01 0 1 0
144 2 3.1333355239665938e+01 2.4281898296591198e+01 1.6758883984220660e+01 0 0 0
2 2 2.8484544247035643e+01 2.5815448309793300e+01 1.4545341304411247e+01 -1 0 0
152 2 2.8655649837557579e+01 2.6970453293599817e+01 1.6399762160793706e+01 -1 0 1
177 2 2.9898390015687262e+01 2.6100148081760381e+01 1.6099674128222134e+01 0 0 1
151 1 2.9218305705077356e+01 2.6663874109223862e+01 1.5692960015626300e+01 -1 0 1
159 2 3.0263251419069221e+01 2.7192010327048354e+01 1.4298386138433051e+01 -1 0 1
142 1 3.0667701837137656e+01 2.4944696756706957e+01 1.7039225734851037e+01 0 0 0
145 1 2.7565149026380872e+01 2.7659886456599768e+01 1.7451785678290964e+01 -1 0 0
1 1 2.8258829832374985e+01 2.5267308985943274e+01 1.3737796919569021e+01 -1 0 0
157 1 3.0715746923560630e+01 2.7700593481652934e+01 1.3620517283211024e+01 -1 0 1
143 2 3.1223527515094514e+01 2.5613588337540527e+01 1.7507419780059696e+01 0 0 0
10 1 2.3763425266603580e+01 3.2467028287594061e+01 1.5543918063635223e+01 0 -1 0
60 2 2.4153038573888480e+01 3.1750617146589050e+01 1.6109601445724142e+01 0 0 0
78 2 2.1260772787690176e+01 2.8351168140169520e+01 1.6529604676849942e+01 1 0 0
89 2 2.0940065667097787e+01 2.9994115007425783e+01 1.4709225655095127e+01 1 0 0
138 2 2.2563271159360632e+01 3.1860475475922627e+01 1.4269165643957542e+01 1 -1 1
136 1 2.1913780810041970e+01 3.1427655579325425e+01 1.3703179941800570e+01 1 -1 1
166 1 2.5382803765083573e+01 3.0798518304771832e+01 1.7135224936507999e+01 0 0 0
24 2 2.6113329010545613e+01 2.9865905502334506e+01 1.5954402567701326e+01 0 0 0
88 1 2.0303633335830490e+01 2.9355038576632090e+01 1.5147829281540281e+01 1 0 0
167 2 2.5795674132037025e+01 3.1545902446488725e+01 1.7613233358556883e+01 0 0 0
168 2 2.4823260414386468e+01 3.0253149809429630e+01 1.7770156930875945e+01 0 0 0
137 2 2.1196587886877776e+01 3.2113370524352824e+01 1.3607414506011034e+01 1 -1 1
179 2 2.7903251359894856e+01 3.2563422500551894e+01 1.3585870883924313e+01 0 0 1
22 1 2.6556738751729892e+01 2.9197821648540433e+01 1.5449614935874010e+01 0 0 0
90 2 3.1787504696396624e+01 2.8893856375669472e+01 1.4408410324608191e+01 0 0 0
42 2 3.0169152978977756e+01 3.2351044526174284e+01 1.6330669277922883e+01 0 -1 0
23 2 2.6986326839278817e+01 2.8659611951562066e+01 1.6118047211622986e+01 0 0 0
26 2 2.7816549191053063e+01 3.0367584422786763e+01 1.4829002996394314e+01 0 -1 0
51 2 2.9231934880364438e+01 3.0960701920025343e+01 1.4663585578747458e+01 0 0 0
25 1 2.8367954865575090e+01 3.0971298282580953e+01 1.4197734865995583e+01 0 -1 0
81 2 3.0862170418375150e+01 3.0002402984716277e+01 1.6130911125748273e+01 0 0 0
55 1 3.0123343712935384e+01 3.0659437698346828e+01 1.6490547289832737e+01 -1 0 0
56 2 2.9905267714811337e+01 3.0504760145048166e+01 1.7459375054839327e+01 -1 0 0
16 1 2.3777523091923563e+01 2.3314488722049560e+01 1.8494913791337375e+01 0 0 0
18 2 2.4215149855494239e+01 2.2688180293969747e+01 1.9088406885656330e+01 0 0 0
111 2 2.1500832036194936e+01 2.3416744631971341e+01 2.1021358972569796e+01 0 0 0
104 2 2.4458223044658357e+01 2.0968813464009074e+01 2.0625360318085406e+01 -1 0 0
103 1 2.5165325074641903e+01 2.1473109881592514e+01 2.0098928974925510e+01 -1 0 0
129 2 2.5705606567238547e+01 2.1981054355970748e+01 2.0819179303600382e+01 0 0 0
109 1 2.1691281042960128e+01 2.2859286571533993e+01 2.1885916261753767e+01 0 0 0
110 2 2.2301055602601398e+01 2.2207465591565992e+01 2.1628721031540024e+01 0 0 0
121 1 2.3046788119070399e+01 2.0214465264699459e+01 2.1472426907625859e+01 0 0 0
17 2 2.3342518034154573e+01 2.3944498640744641e+01 1.9119965469941125e+01 0 0 0
39 2 2.6005223268179257e+01 2.0724867548382278e+01 1.8580684314664758e+01 0 0 0
190 1 3.2012438345648960e+01 2.0095648443542103e+01 1.8371306620393760e+01 0 1 0
37 1 2.6591825302833367e+01 2.0066470330348597e+01 1.8193266948712282e+01 0 0 0
99 2 3.1815314400112612e+01 2.1412534815622966e+01 2.1330357280372411e+01 0 0 0
169 1 3.1086018806206788e+01 2.1413914430453598e+01 2.0680463601322334e+01 0 0 0
165 2 3.0149170062778822e+01 2.2987104388536800e+01 1.9265404410223027e+01 0 0 0
170 2 3.0439748761230835e+01 2.0963916340542504e+01 2.1256491728096073e+01 0 0 0
163 1 2.9443509090069615e+01 2.3469229121040875e+01 1.8868691436909177e+01 0 0 0
191 2 3.1685966336870653e+01 2.0661329337425318e+01 1.9131661981363656e+01 0 1 0
133 1 2.6243651144725689e+01 2.2930269711610887e+01 2.2125360774806083e+01 0 0 0
44 2 2.7351765477259516e+01 2.3903102756306723e+01 2.1154991258949540e+01 0 0 0
29 2 2.0762889010305436e+01 2.7094075245091897e+01 1.8719137052009948e+01 1 0 0
13 1 2.1729285826982569e+01 2.4657766749534122e+01 1.9745012291125551e+01 0 0 0
15 2 2.1951140197847213e+01 2.5226501460389976e+01 2.0523047507160786e+01 0 0 0
14 2 2.0955188455500885e+01 2.5082412096949227e+01 1.9286215281439191e+01 0 0 0
63 2 2.3681272351166765e+01 2.6709087113749135e+01 2.1457946056727124e+01 0 0 0
61 1 2.3130630071255908e+01 2.6237830926186433e+01 2.2118396051930709e+01 0 0 0
65 2 2.5555275726563103e+01 2.6004312315312422e+01 1.8659708251914964e+01 0 0 0
153 2 2.5549699917277987e+01 2.7296392946233542e+01 2.0558734453042398e+01 0 0 1
64 1 2.6183861556328068e+01 2.6375772178349820e+01 1.9367979724560946e+01 0 0 0
175 1 2.4829832440500979e+01 2.7875730336068145e+01 2.0879810778970370e+01 0 0 1
123 2 2.6889810117002149e+01 2.7245648120010785e+01 1.8057142992332345e+01 0 0 0
146 2 2.8175783081269088e+01 2.8254762565811440e+01 1.7950700170875539e+01 -1 0 0
164 2 2.9903556238563223e+01 2.4115177136161289e+01 1.8309913114855632e+01 0 0 0
28 1 3.1937522899272395e+01 2.6458393410837381e+01 1.8900821599972524e+01 0 0 0
30 2 3.1479527720938691e+01 2.6919805909762562e+01 1.9672842647679964e+01 0 0 0
66 2 2.6809546662070456e+01 2.5696618100515447e+01 1.9749834302431690e+01 0 0 0
43 1 2.7743542423877841e+01 2.4653440818310010e+01 2.0602479801734020e+01 0 0 0
45 2 2.8501519849235947e+01 2.4166843275354132e+01 2.0220489923542431e+01 0 0 0
48 2 3.0292310662392616e+01 2.7635404470637202e+01 2.1456025023544406e+01 0 0 0
80 2 2.8263250968111191e+01 2.6046747302607081e+01 2.1667765199549684e+01 0 0 0
46 1 3.0854495975344662e+01 2.8022629640048748e+01 2.0795291670459555e+01 0 0 0
79 1 2.8880363187181530e+01 2.6655161539221297e+01 2.2147193152723656e+01 0 0 0
147 2 2.2588801071306467e+01 3.2225822780731448e+01 2.1063752725862646e+01 0 0 0
86 2 2.2911158523910736e+01 2.8728615211760136e+01 1.8367634867150056e+01 0 0 0
119 2 2.1082479297494807e+01 3.1495635820119247e+01 1.9312424260042025e+01 0 0 0
118 1 2.1539970846733073e+01 3.1039016971012266e+01 2.0044086720432723e+01 0 0 0
120 2 2.2242872474416465e+01 3.0495246664814431e+01 1.9690773774510571e+01 0 0 0
85 1 2.3389767787153751e+01 2.9276921813504423e+01 1.9031123347444353e+01 0 0 0
87 2 2.4005987735944856e+01 2.8635861144163705e+01 1.9604791414526971e+01 0 0 0
176 2 2.5270098576470549e+01 2.8722512946892515e+01 2.1236911524590074e+01 0 0 1
107 2 2.0750286331220977e+01 3.0536307391136859e+01 2.1493295390075041e+01 0 -1 0
148 1 2.6169869265429909e+01 3.0267802226203568e+01 2.1644233005274405e+01 0 0 0
149 2 2.5784910345475367e+01 3.0976839951860320e+01 2.2129605615280084e+01 0 0 0
38 2 2.6971545847486876e+01 3.2336031907694455e+01 1.8947805735529897e+01 0 -1 0
47 2 3.1426999475420423e+01 2.8672957823620848e+01 2.1193631643587722e+01 0 0 0
187 1 2.8145702055683415e+01 3.1284019502083410e+01 2.0099031887983013e+01 0 0 0
189 2 2.7476365891226060e+01 3.0854785698717862e+01 2.0720695807328202e+01 0 0 0
188 2 2.8721846100852691e+01 3.1684860469542869e+01 2.0750939157423023e+01 0 0 0
72 2 3.0090141979641807e+01 2.8922591406920247e+01 1.9106676069773481e+01 0 0 0
71 2 2.8901817361206010e+01 3.0191103592816937e+01 1.9156491772746474e+01 0 0 0
70 1 2.9310353984698995e+01 2.9420872350070809e+01 1.8704968937363901e+01 0 0 0
122 2 2.3477281352873018e+01 1.9945855177172024e+01 2.2273850159384601e+01 0 0 0
101 2 2.1681209580989886e+01 2.2753249831416817e+01 2.6213886026625534e+01 0 0 -1
161 2 2.4747171829461966e+01 2.1450012706644859e+01 2.6195968914006944e+01 0 1 0
100 1 2.1413309942288723e+01 2.2104385593188422e+01 2.5589914317792299e+01 0 0 -1
49 1 2.3996209270616287e+01 2.1931166443598261e+01 2.4949131029978528e+01 0 0 -1
27 2 2.3017527370902211e+01 2.1934447394392311e+01 2.4969588569189128e+01 1 0 -1
50 2 2.4336850023618744e+01 2.2791807261820178e+01 2.4589303418194664e+01 0 0 -1
102 2 2.0829296280770006e+01 2.2786011653770778e+01 2.5098090624439589e+01 0 0 -1
186 2 2.0942719068926987e+01 2.3582458767568838e+01 2.3125883294891885e+01 1 0 0
95 2 2.0288602487456295e+01 2.1010742912388544e+01 2.6357000575408303e+01 1 1 -1
134 2 2.5515556875306242e+01 2.3306096427374491e+01 2.2656095329604671e+01 0 0 0
116 2 2.4619242454053264e+01 2.0124637536127722e+01 2.4010073420025115e+01 0 0 0
184 1 2.0456748262416461e+01 2.3882245955469457e+01 2.3869183339620406e+01 1 0 0
139 1 2.9218204691118686e+01 1.9948303599083197e+01 2.2230962013399555e+01 0 0 0
178 1 2.7845005342060659e+01 2.0727201110685083e+01 2.6409642634871187e+01 0 1 0
135 2 2.6793355120735320e+01 2.2460010106430360e+01 2.2848011046028944e+01 0 0 0
182 2 2.7913676310150869e+01 2.1506166060195625e+01 2.4874130640786372e+01 0 1 0
141 2 2.8500915519597342e+01 2.0455695225001893e+01 2.2722991356211669e+01 0 0 0
181 1 2.8012207906746085e+01 2.1945887050534658e+01 2.4022598462330674e+01 0 1 0
183 2 2.8680997214748679e+01 2.2628224115716431e+01 2.4029880855379485e+01 0 1 0
74 2 2.5670941623844708e+01 2.7483406978928869e+01 2.6227747363131730e+01 0 0 -1
62 2 2.2951711112953760e+01 2.7107283147876739e+01 2.2572329273323994e+01 0 0 0
12 2 2.1234564079964908e+01 2.7138056164282368e+01 2.4452783436025538e+01 0 0 -1
108 2 2.3929755992797759e+01 2.5281021040829792e+01 2.3137419497209383e+01 0 0 0
154 1 2.4562856298175014e+01 2.4600330171340477e+01 2.3638263592298951e+01 0 0 0
59 2 2.1272405514016704e+01 2.6124276756713101e+01 2.5630805020378897e+01 0 0 -1
58 1 2.0761557644875683e+01 2.6499539961020353e+01 2.4963467493012811e+01 0 0 -1
185 2 2.0831702264218755e+01 2.4774245789520805e+01 2.3993379373987342e+01 1 0 0
67 1 2.2188693524496138e+01 2.8311603599037348e+01 2.3474911283683102e+01 0 0 -1
155 2 2.5019160400758903e+01 2.4945279580232778e+01 2.4419972446240688e+01 0 0 0
92 2 3.0467599887594595e+01 2.4290192166227662e+01 2.3840521914186475e+01 0 0 -1
52 1 2.6504824179147924e+01 2.6568582688348489e+01 2.5086137668093546e+01 0 0 -1
91 1 2.9546038987733731e+01 2.4512306537447959e+01 2.3858955256599291e+01 0 0 -1
93 2 2.9372579320041488e+01 2.4834036094310875e+01 2.4715966969724864e+01 0 0 -1
158 2 3.1298487648747251e+01 2.7178616133480471e+01 2.6017565426538745e+01 -1 0 0
57 2 2.9289735623609570e+01 2.6066897309041948e+01 2.2863030857773619e+01 0 0 0
54 2 2.7322121469749966e+01 2.6235994050540832e+01 2.5535323773354808e+01 0 0 -1
53 2 2.6737213073071061e+01 2.7274187828312151e+01 2.4463108684722368e+01 0 0 -1
83 2 2.8093480080422047e+01 2.7934419705914387e+01 2.2851901565802809e+01 0 0 0
106 1 2.0537611645405477e+01 3.0127572298625900e+01 2.2373534566499220e+01 0 -1 0
69 2 2.2780051830072086e+01 2.8860472158551481e+01 2.4099679616038415e+01 0 0 -1
68 2 2.1596298378650616e+01 2.8954964185056902e+01 2.3048774698324102e+01 0 0 -1
113 2 2.4253612445061588e+01 2.9448222273014672e+01 2.5917194775281327e+01 0 -1 0
114 2 2.3093101097732109e+01 3.0483555069363309e+01 2.5730526160867058e+01 0 -1 0
112 1 2.3701670355683785e+01 2.9914044641342763e+01 2.5241529764810284e+01 0 -1 0
117 2 2.4318995520135257e+01 3.1367928646611855e+01 2.3990927732933574e+01 0 -1 0
115 1 2.4435483501822368e+01 3.2161798606838595e+01 2.3449371418451602e+01 0 -1 0
156 2 3.2015931083125473e+01 3.0898324167378007e+01 2.2881010065962396e+01 -1 0 0
82 1 2.7500762674020319e+01 2.8587083985541923e+01 2.3319057206641421e+01 0 0 0
150 2 2.6693661881894510e+01 2.9713282004698264e+01 2.2310571883660934e+01 0 0 0
36 2 2.8044765816228029e+01 2.9246730372501311e+01 2.3756931593872892e+01 0 0 0
140 2 2.9774677393659413e+01 3.2525220299696514e+01 2.3045286704462850e+01 0 -1 0
180 2 3.0863499176202854e+01 3.2095846555486631e+01 2.4994500947858899e+01 0 0 0
98 2 2.9786126428720927e+01 2.8991605641718760e+01 2.5377925687228572e+01 -1 -1 0
171 2 2.8796197293176036e+01 3.0074777916722034e+01 2.5779446226531505e+01 0 0 0
97 1 2.9170787533359388e+01 2.9620905755053847e+01 2.4945218548362323e+01 -1 -1 0
130 1 3.0647958687976807e+01 3.1625563176026542e+01 2.4168147244296819e+01 0 -1 0
131 2 3.0091616643890614e+01 3.0889644171537778e+01 2.4490060726984954e+01 0 -1 0

Velocities

11 -1.3371231398149602e+01 1.1582841196536817e+01 -1.6590810851891192e+01
21 -3.2877333561641202e+00 7.0468047629697184e+00 3.6931650314202180e+01
31 4.0826666008395280e+00 -2.2963402719531678e+00 -2.5631758707054466e+00
162 6.5565960444291624e+00 -1.2426265803894768e+01 -1.0159695859495878e+01
128 -1.7970343716400905e+01 5.9717541874024578e+00 -1.3940879400115114e+00
9 -1.3096176399283669e+01 -2.9116350402156105e+01 1.2331488405482872e+01
32 -2.9825095049225063e+00 1.9833907669871042e+01 1.2682392214819204e+01
160 9.9214981971868959e+00 -1.4076477238667262e+00 1.4491595148800722e+00
19 3.2343950236040109e-01 -1.4114642180043593e+00 -7.7170028817222691e-01
127 -6.7671660448301596e+00 -6.1066334133181153e+00 -4.3725718400014246e+00
20 -1.0639527848488058e+01 -1.6306163589814766e+01 -3.4506724479414132e+01
124 2.9138739727324658e+00 -1.0446114049870580e+01 -2.5610312821795032e+00
105 -1.6299710184070108e+01 1.6453673666148010e+01 2.4572105632766863e+01
41 2.2722233545978959e+01 2.0912939791871750e+01 1.2667769752686382e+01
40 -3.7342895696411582e+00 1.1255307509568890e+00 3.5937828838774331e+00
132 -3.1970934845466815e+01 1.5190766071578654e+01 -3.9471350337338906e+00
172 -5.6566896066861849e+00 -8.6005821559806854e+00 -1.6882343929069419e+00
174 1.1624585735575769e+01 -5.2664964140126953e+00 -3.3148732466517100e-01
125 -1.2549091527737211e+01 1.3032242212409239e+01 6.1028188371816068e+00
126 6.9072058572423893e+00 -3.9959632543988595e+00 1.2929484676572951e+01
192 1.7280315477372991e+01 1.1042861402251354e+01 2.0509135676291091e+01
96 2.2937262849601417e+01 4.2134886201943376e+00 -3.0676029516822894e+00
173 -5.4045072349457790e+00 1.4732545692840995e+00 -2.6080841798667077e+01
94 4.0422496264808876e+00 -6.1746477560937407e-01 -6.7634127555465628e+00
35 -2.3451100785246688e+01 -1.6718884504025237e+01 1.1779026802874014e+01
84 1.6813815707328473e+01 5.3063784455899823e+00 -2.3321351315578923e+01
6 1.8200055349881204e+01 -2.5926057867025838e+00 1.7513431197634311e+01
7 -2.3919732132234057e+00 1.1700594816687584e+00 5.8056980669982561e-01
8 2.5979673665570729e+01 1.2920958719016673e+01 1.6432135974914321e+01
33 2.0856669807758539e+01 8.3355981175019274e+00 -1.5219739618069404e+01
34 2.8470606820641282e+00 -4.0694486543294062e+00 2.5300951663953279e+00
5 1.9813181049598661e+01 -9.5123797121008185e+00 1.3442674244314825e+01
4 8.0003907055335741e+00 3.0560034523070621e+00 9.7688211709998392e+00
77 2.5068078771941092e+01 2.2490776819946415e+01 -4.1561684514417820e+01
76 -1.2969361444477958e+00 -4.2910001452259983e-01 -3.8691820115406084e+00
73 2.3978570534337087e+00 -4.9731022876579767e-01 -7.0805622183580077e+00
3 2.9323573143693938e+01 2.0367980440068894e+01 -2.3856264178267971e+01
75 1.1315133485945308e+01 5.7597474556070534e+00 1.9065286848516976e+01
144 -2.0646227878541925e+01 -6.6029764916277465e+00 1.8615720454137907e+01
2 -4.4837393529258209e+00 -1.4087908735873585e+01 1.8112847317534360e+01
152 1.0999638646464701e+01 -1.6813733715305425e+01 1.4625341489858698e+01
177 -2.0683038081862154e+01 -6.6681561424431812e-01 -2.8223396498057639e+01
151 5.8513411347093616e+00 -7.8650619515131410e+00 -8.0611213707749236e+00
159 -2.3035501060071883e+01 3.0730574064767806e+00 1.1785764093164637e+00
142 6.5618990105753305e-01 -2.8933965831509951e+00 -3.8966663474548229e+00
145 5.9859497064540135e-01 7.9948634899241373e+00 4.6556129235498220e+00
1 6.6860176199002739e+00 4.0664579397344429e+00 4.1830692411665271e-01
157 -2.0772224963264891e+00 3.8158178257951586e-01 5.1744659468131493e+00
143 5.5945659826920178e+01 1.2505222818951337e+01 2.4838933820384611e+01
10 3.5142499252036705e+00 2.3262300445291811e-01 3.8545025611554120e+00
60 -1.9244150009764762e+00 7.9455521616988500e-01 -1.6671557484707428e+01
78 1.9736516633498265e+01 3.6914878776210529e+01 1.0220102150505076e+01
89 1.9281416018279213e+01 -7.2100764181622674e+00 -3.7810875424244223e+01
138 -2.1310412944901579e+01 1.3750742323164411e-01 1.2204944571983475e+01
136 -2.8644882832713527e+00 -1.0350066933934587e+00 2.1715415417900132e+00
166 -3.8800558529923110e+00 2.2945238401166375e+00 5.6880644239551597e+00
24 1.9871957798697913e+01 -1.9716899240116213e+01 2.5178935707766470e+01
88 2.5016108361583362e+00 -1.5961131084547893e+00 -9.5525696755949081e+00
167 2.8074425586784741e+01 -6.0829310661925442e+00 -8.2272958858870577e+00
168 1.2147672375185994e+01 4.1597992306873062e+00 7.5063833763290608e+00
137 7.1540143930407563e-01 -3.1392760421121428e+00 -6.1998002043589580e+00
179 1.5510101184565302e+01 2.7614088800743826e+01 -2.4165842318985050e+01
22 -1.7156178886670037e+00 4.0168154931423290e+00 4.9062326980908499e-01
90 -3.1350532666165510e+01 6.1755915496172431e+00 -3.5914286659086798e+01
42 2.2316891498802928e+01 8.0623466572190150e+00 -1.4010856228537428e+01
23 6.7090933122292364e+00 -7.5802564483459571e+00 2.8789239202307493e+00
26 -4.0076227147274814e+01 -1.1439201735181287e+01 -1.7684790201229195e+01
51 -1.3206498048464441e+01 3.0434368729844934e+00 1.9144456766234459e+01
25 -3.4999501207293049e+00 5.5129274196876521e+00 8.2360170458855961e+00
81 1.2947320477871196e+00 -1.7633410007794868e+01 -1.7667304385504643e+01
55 -1.8224010966134843e+00 -1.9782788301180523e+00 -2.1373416242103365e+00
56 -1.2578743831614092e+01 -1.0665439642455418e+01 -1.0575962824645682e+01
16 -3.5075353383302956e+00 5.7763751667696122e+00 5.5030851912387266e+00
18 3.1638080671658519e+00 -6.1960398767812741e+00 5.5278087905236175e+00
111 1.8329864754777695e+01 -1.2052587658205619e+01 -2.9957843193296842e+01
104 -2.3347447508654735e+01 1.1158272728328317e+01 -1.2163176450802499e+01
103 6.5656050466092202e+00 3.8516809620904802e+00 -7.3807124307803420e+00
129 4.0566022318541997e+01 2.6347152037080610e+00 -3.0093854794970234e+01
109 2.3136288399104510e+00 -2.3665344587661687e+00 -1.5238117529276738e+00
110 1.4112598099880007e+01 -6.1361246633782898e+00 -1.2292775848000270e+01
121 -1.4843818089095473e+00 -1.2365361594450821e+00 -1.4247798593719641e+00
17 -1.1794811032992920e+00 1.6731726605269024e+01 1.8456118224734936e+01
39 -4.6495482425562198e+00 -6.1076249388250625e+00 5.5974073257174410e+00
190 -4.1994893324133153e+00 3.7795905537385757e+00 7.9044649547753068e+00
37 1.9825262844902767e+00 1.4173597156345734e+00 4.0059097244496815e+00
99 2.4051670421595716e+01 -1.2070520275735250e+01 2.4635970848870745e+01
169 3.4296472728481859e+00 5.7883142599977400e-01 -5.2167553520015719e+00
165 -4.0614296341484817e+00 -1.6266591393371883e+01 3.6493892489485411e+00
170 1.5162360618936768e+01 -2.8281241153662529e+00 1.4168396326056978e+01
163 -7.5250790079655170e+00 -1.3377919049240561e+00 -4.7402050613396849e+00
191 -1.9766691881124075e+01 -1.7918024750895569e+01 2.0789315739924401e+01
133 1.4701391798994381e+00 -1.5927107667385636e+00 4.0078142372465440e+00
44 -1.4268276685180452e+00 2.2643569724994098e+01 4.8255282737463974e+00
29 -9.0404404804767129e+00 5.3286716538523287e+00 3.1616247157845216e+01
13 4.5466266916621541e+00 -8.2687703177772331e-01 -1.7155196492923384e+00
15 -7.6006206388780377e+00 8.7845905198770229e+00 1.2223170789453400e+01
14 2.7736278584070632e+01 1.3273426448077691e+01 -2.1477870892047889e+01
63 3.3937100602727424e+00 -3.1812147257248182e+00 -1.0305135572415784e+01
61 -1.3738340334905639e+00 6.0063846090374815e+00 -3.8795984334578906e+00
65 2.0914907636262665e+01 4.3619921194033315e+00 -3.7290062820978442e+00
153 3.2998009593421649e+01 -4.5548758290538016e+00 4.7516779907311196e+01
64 -2.5951864177189590e+00 -3.5362295592860953e+00 2.3036468637015091e+00
175 6.7892942881045215e-01 -2.4062647931755330e+00 8.2559565987727943e+00
123 6.4902164186744820e+00 -3.0538701291274775e+00 1.7452196343268920e+01
146 -1.5936383401307062e+01 1.5063642196030409e+01 -1.3948913778513183e+00
164 1.3451744432173485e+00 -8.3819223929147331e+00 2.0789449822194744e+01
28 -4.3783513973025228e+00 -1.5542315486235558e+00 2.0470228419213607e+00
30 -2.0717791107758416e+01 -1.5092145522458877e+01 1.7540938522020237e+00
66 -1.1836829332749463e+00 1.0404386195190961e+01 2.6727059339685266e+00
43 -1.9740608153825299e+00 1.4454179398613476e+00 -8.0272346290719661e+00
45 1.0346926895134825e+01 -1.7113806288063390e+01 -3.0906287005025444e+01
48 -4.4505210286754391e+01 -4.6736499803433187e+00 -1.8728297014850252e+01
80 -1.7555882850583922e+00 -1.0227122990528999e+01 1.6842841867321827e+01
46 -9.9433194225130672e-01 5.0699330276008716e+00 1.4376471843136589e+00
79 3.8455559655683933e+00 -4.4495712927570157e+00 6.1388751677509603e+00
147 -3.9313734251229633e+01 1.2629627693128464e+01 -1.5778176180260111e+00
86 -2.2390373472706866e+01 2.1450051588229570e+01 1.1246888113283074e+01
119 1.8360367993855679e+01 -8.0285283482895551e+00 1.1195046839305338e+01
118 -1.1067375386201248e+00 -1.4974579078482537e+00 5.7282892743687999e+00
120 -1.6318984712716752e+01 -2.4183422995864561e+01 -3.1895881979604752e+00
85 -2.0247395090823406e+00 -2.3194595922408952e+00 8.5895151866024651e-03
87 -4.1953042952610957e+01 3.2920625635433115e-01 1.5693090918444160e+01
176 1.2022067180975368e+01 -1.0823662739950432e+01 1.2703140790670604e+00
107 -3.4176598642841736e+00 -5.8376116600549270e+00 -8.8861985404077171e+00
148 1.4232590011057007e+00 -2.2084630525126885e+00 -2.7208572617833240e+00
149 -1.7057307046233248e+01 -4.0089306810452658e+00 2.1771057887360969e+00
38 -8.9204194956509983e+00 -2.8013688598366837e+00 -1.3924162346832327e+01
47 -1.9163240812817346e+01 -1.0382844053237047e+01 -4.6577364821783878e+00
187 2.0242690980392424e+00 1.5153856602140530e+00 -2.8353687128076026e+00
189 1.5025461861183532e+01 -1.1611350027830088e+01 -1.7605328422041275e+01
188 5.8601903187097326e+00 -2.7016864609819491e+00 -2.4261164032805165e+00
72 -2.8244923027549959e+01 8.1506436967182907e+00 1.8053677242010089e+01
71 1.8760986227415454e+01 1.8064209867792748e+01 -4.0046061532232509e+00
70 -2.3656711232861221e+00 3.0512459579410547e+00 -9.3989202085115797e-01
122 1.6057062611822790e+01 -5.4043351826303008e+00 1.8648509269672012e+01
101 -8.5036277628359151e+00 2.0222294651409380e+00 4.5245588319486716e+00
161 2.6057001616437720e+01 6.3527592477868469e+00 -2.5019208749091573e+00
100 -7.0122632377392180e-01 -5.0706446845353668e+00 -5.4242738962215853e+00
49 -7.0973809433492860e+00 4.7677751945167053e+00 -8.3066830554181053e+00
27 -7.8607021409359428e+00 -1.9855075935784388e+01 -2.0075765833650863e+00
50 -9.5427454377000682e+00 4.0963097554481074e+00 -1.2933383267892147e+01
102 1.0261770297630401e+01 3.3469058832483940e+00 -1.0257077360036654e+01
186 1.9688418925115041e+01 8.8546590036847714e+00 2.6789047227939797e+01
95 2.7889671667160794e+01 -1.0784677360638126e+00 9.9610302592875470e+00
134 -3.5511093821437491e+01 -9.5665265366333916e+00 -4.8688949849575641e-01
116 3.2308365719994518e+00 -1.4211161966772551e+01 2.7786729670334633e+00
184 -5.1637051264551738e-02 5.6850936925045090e+00 6.6843197666160910e+00
139 -3.8840526309746370e+00 -1.7790804405378677e+00 7.8595889604511981e+00
178 -3.5975456020568024e+00 -8.7638995041125556e-01 2.1866128161632745e+00
135 1.2111206517924147e+01 1.4558966982755791e+01 1.3361517649011594e+01
182 -8.8727216035201959e+00 -9.2129522451024179e+00 9.0108346432744657e+00
141 4.9407307753799516e+00 2.7151222265853967e+01 2.9616184145231696e+01
181 2.2221508921435964e+00 -4.2322075716530092e+00 2.8348952426742255e+00
183 5.2200698810797797e-01 -4.7192414385921193e+00 -2.0872874673239398e+01
74 -8.9255977725846414e+00 6.9975171695504965e+00 5.7053954390847466e+00
62 -1.2047400098001692e+01 -1.5446322818841658e+01 -1.9915949387529601e+01
12 -2.6963237392452758e+01 1.7732126496456743e+01 -2.4113943270403652e+01
108 -1.2011646515664445e+00 9.9177147704333368e+00 1.6317615747668444e+01
154 -7.2271656359772880e+00 2.6030530694282126e+00 2.9590167265484397e+00
59 1.8442958999239874e+01 -5.1695769169741312e-01 -1.1917496811858399e+01
58 -1.2296949518940434e+00 -1.0864613227959656e+00 -2.9533989652839865e+00
185 -5.4977909755333405e+00 -1.6181918295872737e+01 -9.8644366108579646e+00
67 4.4855645841581510e-01 1.1549423042805511e+00 2.9015872384119162e-01
155 -1.6007236347519306e+01 -1.3047061897603070e+01 -1.4794254214224939e+01
92 -4.2485151156793526e+00 1.9709648870153000e+01 2.1252278331937036e+00
52 1.2845322401738923e+00 6.2934426110112938e+00 -2.1548511292809658e+00
91 -6.8071652487916401e-01 3.2507813281678795e+00 -2.3238391063559369e+00
93 2.9607986574193806e+01 -1.5896338166027498e+01 4.3833879348865485e+00
158 3.1304876166882629e+01 2.3256959548098955e+01 1.3501054398817411e+00
57 1.9657661876878066e+01 2.4337325872645334e+01 -2.8068801317941009e+01
54 2.1670207094668818e+01 5.1009516513413260e+00 -1.1954739542775426e+01
53 1.8587048933658764e+01 -1.1991343277236911e+01 -2.3897927953390205e+01
83 3.1592689264560998e-02 3.3737728787046308e+01 1.0331863623288202e+00
106 -1.7347652971540324e+00 1.7441214435565540e+00 -4.4137207965093230e+00
69 4.3646530260082429e+01 2.2126614231954530e+01 1.6493345184031721e+01
68 7.0397175357958623e+00 1.4574164755491385e+01 4.1138055684765735e+00
113 -2.2081321791734677e+01 6.6833345426027391e+00 8.8578289073164793e+00
114 -1.6885071339102542e+01 -5.1846193299611114e+00 -1.6557438798253607e+01
112 -5.1230446426838521e+00 3.2537601949648272e+00 -5.0453301868827607e+00
117 -1.2327350900548861e+01 -4.3247073832213294e+00 -1.1459571975313564e+01
115 2.3202032701887032e+00 -5.3452549997488026e+00 -2.9814945238317692e+00
156 3.9372667464385167e+01 -2.0907942034369299e+01 1.1259913167812048e+01
82 -2.1098400452191526e+00 -1.3862090473105200e+00 4.6553561208004988e+00
150 -3.9035127002212739e+00 -3.1183305025506098e+01 -1.0372559888415878e+00
36 2.0896847667355608e+01 8.6290720401492926e+00 -2.1080131412701785e+01
140 -5.4813281417562072e+00 6.1780121444105713e+00 4.6371448950778431e+00
180 -9.6459869683063086e+00 -1.5244894563884259e+01 2.3665497800374158e+01
98 -1.0332250311570055e+01 1.1998325440287276e+01 1.6739845862584723e+01
171 1.2348061932632465e+01 3.7250544428360177e+00 3.4785406667558898e+00
97 2.0434735618864281e+00 4.6709911557889278e-01 4.0081106710782368e+00
130 -1.2387659112418583e+00 -1.4799686353051453e+00 -1.3263803320808571e+00
131 -1.5928796088385059e+01 8.6782410209805749e-01 -6.8505660031303703e+00
